ITEM: TIMESTEP
16800
ITEM: NUMBER OF ATOMS
891
ITEM: BOX BOUNDS mm mm mm
-0.05 0.05
-0.05 0.05
0 0.15
ITEM: ATOMS id type type x y z ix iy iz vx vy vz fx fy fz omegax omegay omegaz radius f_Temp[0] f_heatFlux[0] 
199 1 1 -0.00444381 -0.045816 0.00397406 0 0 0 2.70492e-05 -1.75331e-05 -9.19198e-06 7.16511e-05 8.97929e-05 -3.58486e-05 -0.0027276 -0.00777181 -0.00801069 0.004 300 0 
873 1 1 -0.0201485 -0.0414791 0.00390161 0 0 0 -2.70988e-07 -2.80867e-06 -1.88358e-05 3.15396e-05 5.46048e-06 1.30691e-05 -0.0025642 0.00233329 -2.13706e-05 0.004 300 0 
485 1 1 -0.0126797 -0.0442535 0.00397251 0 0 0 1.51673e-06 -1.46725e-05 -2.70972e-05 4.11307e-05 3.48599e-05 -1.70102e-05 -0.00191063 0.00147735 -0.00528445 0.004 300 0 
850 1 1 0.00335611 -0.0441759 0.00394024 0 0 0 7.97494e-05 3.5629e-05 -1.02875e-05 0.000112555 0.000105276 -1.31118e-05 -0.00900387 0.0164616 0.0278592 0.004 300 0 
186 1 1 0.0114405 -0.044599 0.0039279 0 0 0 6.49457e-05 1.37634e-05 2.68387e-05 7.04576e-05 3.77154e-05 3.40318e-05 0.000758656 0.0194044 -0.00645783 0.004 300 0 
560 1 1 0.018969 -0.0420007 0.00394661 0 0 0 2.51018e-05 2.24123e-05 1.17258e-05 2.49966e-05 3.32837e-05 -2.48762e-06 -0.00314728 -0.00234228 -0.00197005 0.004 300 0 
102 1 1 -0.0147504 -0.0357334 0.00386297 0 0 0 8.27222e-06 -2.36879e-05 -3.52493e-05 3.46059e-07 3.22396e-05 3.79247e-05 0.000528176 -0.00043367 -0.00331953 0.004 300 0 
88 1 1 -0.00730795 -0.0383838 0.00392683 0 0 0 2.09078e-05 -3.45438e-05 -3.15411e-05 2.67291e-05 4.53317e-05 -2.68449e-06 0.00607252 0.00214291 0.00355092 0.004 300 0 
776 1 1 0.0052038 -0.0354372 0.00394975 0 0 0 2.64846e-05 -1.31845e-05 4.46475e-06 3.99646e-08 8.88684e-05 3.79213e-05 0.00616207 -0.00571265 0.000192662 0.004 300 0 
410 1 1 0.0130238 -0.0368133 0.0039252 0 0 0 5.35615e-05 1.28363e-05 2.94251e-05 1.1212e-05 5.84193e-05 1.23703e-05 0.00294148 0.00796698 0.00530165 0.004 300 0 
282 1 1 0.025876 -0.0381318 0.00388545 0 0 0 -1.40222e-05 5.43988e-05 2.35988e-05 -1.97927e-05 -3.53133e-05 -1.04019e-05 -0.00354071 -0.000195001 0.00598245 0.004 300 0 
682 1 1 -0.0302015 -0.0348781 0.0039347 0 0 0 -7.54063e-06 6.8067e-06 -4.74366e-06 2.92237e-06 4.64326e-06 1.90587e-05 -0.00183833 -0.00114486 0.00279784 0.004 300 0 
251 1 1 -0.0224189 -0.0338477 0.00392372 0 0 0 3.41447e-06 -5.23443e-06 -2.63785e-05 2.67566e-06 1.91493e-05 2.71879e-05 0.00152883 0.00404919 -0.00377287 0.004 300 0 
770 1 1 -0.00204747 -0.0321409 0.00393914 0 0 0 1.29403e-05 -3.24077e-05 -1.67184e-05 -3.10132e-05 5.25265e-05 3.97917e-05 0.0106589 -0.0069318 0.0100374 0.004 300 0 
883 1 1 0.018166 -0.0307535 0.00390025 0 0 0 1.69446e-05 9.78916e-05 4.72002e-05 1.63612e-05 3.14459e-05 -3.09843e-05 -0.0206264 -0.00305352 0.0212967 0.004 300 0 
838 1 1 0.0320337 -0.0331089 0.00396102 0 0 0 -3.74071e-05 3.41634e-05 4.68478e-05 2.72821e-05 -4.29525e-05 4.32031e-06 0.00780129 -0.00503415 -0.0017524 0.004 300 0 
617 1 1 -0.0372519 -0.0271217 0.00391655 0 0 0 -1.48543e-05 8.41417e-06 -3.12969e-06 4.2735e-06 6.64876e-08 2.17216e-05 -0.00228707 -0.000502619 0.00235793 0.004 300 0 
824 1 1 -0.0292995 -0.0270302 0.00392984 0 0 0 -3.34187e-05 1.25496e-05 5.79682e-06 3.17763e-05 1.38582e-05 4.31373e-05 0.00024171 -0.00711989 0.000520769 0.004 300 0 
571 1 1 -0.0202615 -0.0262214 0.00393287 0 0 0 -8.97816e-06 9.67352e-06 -2.98665e-05 9.22252e-06 1.12721e-05 4.17311e-06 0.000867011 0.0085034 0.00693392 0.004 300 0 
861 1 1 -0.00959329 -0.0297306 0.00389656 0 0 0 2.47424e-05 -5.85704e-05 -3.15204e-05 -4.31856e-05 3.34163e-05 5.14414e-05 0.00825908 0.00389425 -0.003511 0.004 300 0 
434 1 1 0.0103456 -0.0293809 0.00393686 0 0 0 2.62274e-05 5.43588e-06 3.96064e-05 -4.4176e-06 0.000101641 2.61947e-05 -0.0027026 0.00538056 0.00155549 0.004 300 0 
103 1 1 0.0311549 -0.0252346 0.00394383 0 0 0 -7.57055e-06 5.28504e-05 -1.23494e-05 -5.74861e-05 -0.000121514 2.07615e-05 -0.025474 0.0124418 -0.0163142 0.004 300 0 
769 1 1 -0.041344 -0.0202818 0.00398234 0 0 0 -2.96371e-05 6.76491e-06 -6.99651e-06 -4.69399e-06 -3.11303e-05 -1.04706e-05 -0.00158912 -0.00056128 0.00436813 0.004 300 0 
94 1 1 -0.0333714 -0.0202168 0.00394346 0 0 0 -4.6644e-05 1.59766e-05 6.99931e-07 3.03364e-05 -2.56313e-05 3.01139e-05 0.000792274 -0.00409851 0.00334688 0.004 300 0 
40 1 1 -0.025401 -0.0201464 0.00391728 0 0 0 -5.05297e-05 2.4465e-05 2.32604e-05 5.27971e-05 3.24286e-05 2.87014e-05 -0.000419991 -0.00612631 0.00249205 0.004 300 0 
19 1 1 -0.00865133 -0.0218805 0.00393921 0 0 0 0.000101689 -7.60993e-05 1.81002e-05 -7.05106e-05 6.0438e-05 4.24667e-05 0.0185979 0.0197093 -0.0173208 0.004 300 0 
442 1 1 -0.000437357 -0.0218501 0.00393507 0 0 0 6.53219e-05 -0.000132124 5.00282e-05 -0.000113584 0.000138307 6.8411e-05 0.040832 0.0131607 0.0112636 0.004 300 0 
259 1 1 0.00753178 -0.0220002 0.00392473 0 0 0 1.25321e-05 -2.96851e-05 8.52021e-05 -5.36745e-05 0.000171661 1.73351e-05 0.0130451 -0.00188511 0.0104576 0.004 300 0 
512 1 1 0.0153884 -0.0232357 0.00397827 0 0 0 1.20895e-05 4.68507e-05 5.53183e-05 -7.55941e-05 0.000223938 -1.25135e-06 -0.00161392 0.000593787 0.00690094 0.004 300 0 
470 1 1 0.0232617 -0.0243592 0.00390842 0 0 0 -4.88353e-06 0.000140868 3.33383e-06 -2.23889e-05 1.00238e-05 -2.65078e-05 -0.0353608 0.000109184 0.0107942 0.004 300 0 
451 1 1 0.0390292 -0.0244871 0.0039207 0 0 0 -1.51157e-06 -8.38965e-05 -7.278e-05 -6.3463e-05 -4.43258e-05 -4.8593e-05 0.0109203 -0.0113075 -0.00408413 0.004 300 0 
531 1 1 -0.0164596 -0.0192004 0.00396116 0 0 0 2.74787e-05 -2.0027e-05 6.37899e-06 9.50933e-05 -2.65993e-05 1.40588e-05 0.0111431 -0.00356861 -0.0370656 0.004 300 0 
229 1 1 0.0202063 -0.0169137 0.00386918 0 0 0 4.5802e-05 8.51172e-05 5.59484e-05 1.30971e-05 6.74935e-05 -0.000119017 -0.0100085 0.00827685 0.00244015 0.004 300 0 
734 1 1 0.0280529 -0.0179421 0.00394412 0 0 0 7.16812e-05 5.37188e-05 -9.06573e-05 -5.68441e-05 -0.000111113 0.00011094 -0.00665937 0.0337512 -0.0235896 0.004 300 0 
635 1 1 0.042598 -0.0174491 0.003922 0 0 0 -6.09443e-05 -0.000109159 6.87329e-05 -8.67042e-05 -7.60549e-05 8.80312e-05 0.0323643 -0.0107927 0.0238802 0.004 300 0 
87 1 1 -0.044822 -0.0104649 0.00391424 0 0 0 1.29283e-06 2.7509e-05 -9.18889e-06 -6.55693e-06 -4.70395e-05 1.11143e-05 -0.00801218 0.00173804 -0.00861043 0.004 300 0 
406 1 1 -0.0373946 -0.0133913 0.00396009 0 0 0 -4.99681e-05 1.56702e-05 2.04307e-05 -9.32427e-05 -6.49669e-05 -4.93907e-05 0.00449826 -0.0133081 -0.00249167 0.004 300 0 
224 1 1 -0.0230579 -0.0126022 0.00387918 0 0 0 -3.43493e-05 1.73819e-05 3.96706e-05 -2.60376e-06 4.01188e-05 3.2812e-06 -0.00576077 -0.00357638 -0.0147765 0.004 300 0 
751 1 1 -0.0102998 -0.0141547 0.00396899 0 0 0 6.80315e-05 -4.36375e-05 5.27813e-05 -8.65318e-05 0.000107867 4.97514e-05 -0.00601452 0.00334056 0.0194914 0.004 300 0 
622 1 1 -0.00273406 -0.0117411 0.00388469 0 0 0 3.50756e-05 -6.69831e-05 6.05112e-05 -0.000156114 0.000163252 0.000134994 0.0109768 0.00450394 -0.0205233 0.004 300 0 
128 1 1 0.00951087 -0.0106852 0.00388441 0 0 0 -5.37445e-06 -4.355e-05 5.35784e-05 -0.000108467 0.000178069 9.06235e-07 0.00580457 -0.00740622 -0.0176481 0.004 300 0 
68 1 1 0.0262816 -0.0102109 0.00395448 0 0 0 5.0975e-05 3.52034e-05 -3.81852e-05 -5.1008e-05 -6.15117e-05 6.49436e-05 -0.00568052 0.0282714 0.0528856 0.004 300 0 
791 1 1 0.0340945 -0.0118587 0.00392812 0 0 0 7.35189e-05 0.000194451 -0.000115388 -0.000241234 -6.13657e-05 8.57314e-05 -0.025997 0.0123376 -0.0343908 0.004 300 0 
354 1 1 -0.038075 -0.00550405 0.00392035 0 0 0 -2.47914e-05 3.77246e-05 1.23938e-05 -9.81817e-05 -0.000142645 -0.000146787 -0.0064111 0.0022812 -0.00030179 0.004 300 0 
725 1 1 -0.0304905 -0.00800499 0.00392477 0 0 0 -7.2947e-05 4.23403e-05 3.64896e-05 -9.46413e-05 -8.67705e-05 -0.000138893 -0.00828984 -0.0174608 0.00315918 0.004 300 0 
353 1 1 -0.0161287 -0.00879827 0.00391101 0 0 0 -2.42792e-06 -6.36978e-05 5.16356e-05 -5.79718e-05 7.62003e-05 3.13316e-05 0.0145917 -0.00343339 -0.00577191 0.004 300 0 
391 1 1 -0.00857657 -0.00639771 0.00391314 0 0 0 1.55082e-05 -2.55259e-05 4.40323e-05 -0.00021135 0.000214815 5.53689e-05 -0.000323313 0.00613819 0.0106215 0.004 300 0 
683 1 1 0.0173535 -0.00945651 0.00391022 0 0 0 3.79252e-06 6.06564e-05 3.40435e-05 -2.38182e-05 1.77605e-06 -2.27183e-05 -0.00358255 0.00526161 0.0628539 0.004 300 0 
690 1 1 0.0385535 -0.00520264 0.00390033 0 0 0 9.73769e-05 -1.12283e-05 -2.66971e-05 -0.000241469 -7.27931e-05 0.000179241 -0.00235597 0.0320422 0.0179071 0.004 300 0 
10 1 1 0.0449636 -0.00990879 0.00397386 0 0 0 6.84362e-07 -3.70097e-05 3.27373e-05 -4.47211e-05 9.65293e-06 0.000108691 -0.0164002 9.90584e-06 -0.0223151 0.004 300 0 
402 1 1 -0.0460168 -0.00264243 0.00392178 0 0 0 -1.7604e-05 3.38499e-05 -6.05173e-06 -3.78911e-05 -9.06245e-05 -6.94068e-05 0.00401309 0.00130224 0.00802895 0.004 300 0 
761 1 1 -0.0294744 -0.000168254 0.00392541 0 0 0 -2.81068e-05 2.91523e-05 2.33554e-05 -2.24825e-05 -9.83954e-05 -2.61904e-05 0.00152861 0.00124969 -0.00894201 0.004 300 0 
293 1 1 -0.0229324 -0.00466891 0.00395924 0 0 0 -2.01419e-05 -6.69655e-06 2.10679e-05 5.28494e-05 1.32204e-05 1.01762e-05 0.00190975 -0.00845299 0.00190647 0.004 300 0 
384 1 1 -0.0146108 -0.000933923 0.00398153 0 0 0 -0.00112463 -0.000467024 -1.73526e-05 -1.43443e-05 -2.26025e-05 -5.55528e-05 0.116292 -0.281379 0.215298 0.004 300 0 
378 1 1 0.00130624 -0.00490424 0.00392884 0 0 0 4.98759e-06 -4.09114e-06 3.78314e-05 -0.000264314 0.000136428 8.87444e-05 -0.0114901 -0.00327957 0.0476036 0.004 300 0 
390 1 1 0.0103709 -0.00276546 0.00396874 0 0 0 -3.96352e-05 3.38265e-06 3.33966e-05 -0.000163846 0.000121545 4.75593e-05 -0.000608637 -0.00528354 0.0498081 0.004 300 0 
411 1 1 0.0223607 -0.00329309 0.00397649 0 0 0 0.000160732 6.8206e-05 -3.35984e-05 -0.000100846 -1.75874e-05 3.71771e-05 -0.0122984 0.0226132 -0.105654 0.004 300 0 
342 1 1 0.0307351 -0.00361675 0.00397495 0 0 0 -7.82626e-05 9.44939e-05 -5.54985e-05 -0.000236387 -9.51004e-05 9.45022e-05 -0.0138348 -0.0286761 -0.0223782 0.004 300 0 
262 1 1 0.0460221 -0.00206506 0.00395832 0 0 0 5.51513e-05 -3.71396e-05 -2.38012e-05 1.04819e-05 -2.5363e-05 -4.80235e-05 0.00220504 0.00354745 0.00463479 0.004 300 0 
261 1 1 -0.0398215 0.00224599 0.00393463 0 0 0 -2.70967e-05 3.82831e-05 -4.0389e-06 -5.89168e-05 -0.000158931 -6.4453e-05 -0.00563102 -0.00553345 -0.00519818 0.004 300 0 
666 1 1 -0.00454674 0.00045123 0.0039557 0 0 0 3.25722e-05 -4.53791e-05 2.62418e-05 -0.000137092 0.000182117 0.000112918 0.00662605 0.0146391 -0.0283506 0.004 300 0 
815 1 1 0.00434388 0.0024354 0.00392703 0 0 0 -5.22923e-05 1.77444e-05 -1.31559e-05 -0.000218762 9.55978e-05 6.84754e-05 -0.0046776 -0.0146807 -0.0460358 0.004 300 0 
306 1 1 0.0163701 0.00247646 0.00395815 0 0 0 0.000172545 -3.23874e-05 -6.15564e-05 -0.000157417 0.000143719 4.22516e-05 -0.00292221 0.0260287 -0.100043 0.004 300 0 
178 1 1 0.0241042 0.00444165 0.00386147 0 0 0 0.00021217 4.84765e-05 -0.000115215 -6.02488e-05 -6.28203e-05 1.11842e-05 -0.00978492 0.0503676 0.0998378 0.004 300 0 
862 1 1 0.0320656 0.00423351 0.00393128 0 0 0 8.80589e-05 0.000123487 -0.000146599 -5.64035e-05 -0.000123494 6.08396e-05 -0.0316864 -0.0226655 -0.0610449 0.004 300 0 
661 1 1 0.0398755 0.00291464 0.00394689 0 0 0 6.52536e-05 -4.92472e-05 -5.22844e-05 -2.83097e-05 -0.000133775 1.9542e-05 -0.0119231 0.00865512 0.00200382 0.004 300 0 
677 1 1 -0.0453782 0.00788546 0.00393632 0 0 0 -1.00423e-05 2.30855e-05 -2.0534e-05 -4.5367e-05 -0.000118308 6.62466e-05 -0.0126434 0.00547764 0.00805828 0.004 300 0 
12 1 1 -0.0333161 0.00671963 0.00393682 0 0 0 -2.52789e-05 2.46614e-05 1.89443e-05 -2.83764e-05 -0.000161104 -3.60687e-05 -0.00733617 -0.0148567 0.00473579 0.004 300 0 
420 1 1 -0.0254001 0.00664829 0.00392666 0 0 0 1.02045e-05 -5.41515e-06 3.37751e-05 9.50953e-06 -7.02349e-05 1.19609e-05 0.00209623 0.00540806 -0.00927259 0.004 300 0 
654 1 1 -0.0175136 0.0072093 0.0038718 0 0 0 6.29979e-06 -3.3259e-05 2.90885e-05 2.90178e-05 9.52404e-05 0.000122289 0.00989777 -0.00330856 0.00209756 0.004 300 0 
145 1 1 -0.00454415 0.00836508 0.00386294 0 0 0 7.90464e-06 -7.11836e-06 5.13081e-05 -2.94357e-05 0.000248813 2.21499e-05 0.00260807 -0.00385512 0.0221852 0.004 300 0 
624 1 1 0.0451447 0.00890645 0.00390681 0 0 0 8.13604e-05 -6.83216e-06 -0.000101089 7.7042e-06 -4.89681e-05 -1.02103e-05 0.00206995 0.0132853 0.00388868 0.004 300 0 
613 1 1 -0.0372991 0.013534 0.00384334 0 0 0 -2.97687e-05 -2.39231e-05 -1.03117e-05 -7.79296e-05 -0.000197178 -1.43784e-05 0.0108717 -0.00581091 -0.00881934 0.004 300 0 
265 1 1 -0.0293062 0.013543 0.0039637 0 0 0 1.28715e-05 1.13346e-05 5.74513e-06 -3.71847e-05 -0.000121558 -9.3538e-05 -0.00858962 -0.00464845 -0.00032615 0.004 300 0 
273 1 1 -0.0213695 0.0141273 0.00392939 0 0 0 1.28422e-05 -5.01978e-06 5.84917e-05 -4.16063e-05 -9.19146e-06 -3.88571e-05 -0.00430527 -0.00137007 -0.0102374 0.004 300 0 
492 1 1 -0.0114501 0.0123711 0.00398066 0 0 0 2.30663e-05 -5.30603e-05 7.65186e-05 5.59226e-06 0.000191027 1.25802e-05 0.0168136 0.00637883 -0.00639949 0.004 300 0 
234 1 1 0.00585278 0.0103928 0.00392895 0 0 0 -5.29839e-05 5.0342e-06 8.88865e-06 3.02333e-06 2.56378e-05 1.66117e-05 0.00542285 0.000629478 -0.00994181 0.004 300 0 
160 1 1 0.0142842 0.0106355 0.00390975 0 0 0 -2.83964e-05 -1.87136e-05 -3.86678e-05 -3.80187e-05 -2.14415e-05 2.76783e-05 0.0167652 -0.0071778 -0.00247582 0.004 300 0 
484 1 1 0.0220893 0.0120737 0.00390151 0 0 0 -3.81303e-05 -9.5823e-06 -7.27712e-05 -6.3306e-05 -4.4909e-05 2.16019e-05 -0.00341312 -0.00115181 -0.0155286 0.004 300 0 
743 1 1 0.0300184 0.0126216 0.00398141 0 0 0 -3.24684e-06 2.13558e-06 -4.19052e-05 3.64238e-05 -0.000296327 -0.000101238 -0.00685163 -0.0037703 0.0117812 0.004 300 0 
514 1 1 0.0379536 0.0130186 0.00386931 0 0 0 4.67311e-05 1.8454e-05 -0.000118309 4.7668e-05 -9.80763e-05 -0.000102994 -0.00266832 0.0165126 -0.00424029 0.004 300 0 
530 1 1 -0.0159002 0.0198648 0.00392799 0 0 0 1.70911e-05 3.72028e-06 4.23277e-05 -0.000106022 6.99357e-06 -9.4882e-05 0.00358253 0.00630286 0.0122466 0.004 300 0 
227 1 1 -0.00736506 0.0192081 0.00396602 0 0 0 -1.06195e-05 1.53536e-05 8.97945e-05 -1.5636e-05 0.000203292 -8.44303e-05 -0.00382054 0.0128398 0.0194903 0.004 300 0 
392 1 1 -0.000498706 0.0151511 0.00394447 0 0 0 -4.20771e-05 3.38452e-05 6.65546e-05 9.5353e-06 0.000120171 -3.57672e-05 -0.00236415 -0.00410447 -0.00768032 0.004 300 0 
493 1 1 0.00985832 0.0172529 0.00394663 0 0 0 -2.18002e-05 -5.0175e-06 3.52711e-05 -1.69745e-05 4.39674e-05 -1.01609e-05 0.00435328 0.0056209 -0.00506112 0.004 300 0 
34 1 1 0.0176356 0.018785 0.00394131 0 0 0 -1.62144e-05 -1.61488e-05 -4.26667e-05 -3.78412e-05 3.29454e-05 -1.57657e-05 0.000316091 0.00413996 0.00160547 0.004 300 0 
206 1 1 0.0255397 0.0192352 0.00397016 0 0 0 3.94628e-06 -2.63964e-05 -5.98781e-05 1.00793e-05 -4.51715e-05 -3.5699e-06 0.00121445 -0.00658366 -0.00221603 0.004 300 0 
104 1 1 0.0334173 0.0199345 0.0038968 0 0 0 5.32401e-05 1.46935e-05 -7.85609e-05 4.78821e-05 -1.18706e-05 -0.00010642 -0.0059316 0.012963 0.011173 0.004 300 0 
809 1 1 -0.0412058 0.0204949 0.003955 0 0 0 -6.55469e-06 1.17352e-05 3.65611e-05 -5.55226e-05 -0.000139848 -7.55866e-05 -0.000394945 -0.0063572 0.00302902 0.004 300 0 
773 1 1 -0.0331523 0.0204532 0.00393528 0 0 0 -1.68444e-05 -3.88708e-05 -1.81799e-05 -6.68219e-05 -0.000164221 -0.000201457 0.0161748 -0.00811372 0.00682915 0.004 300 0 
792 1 1 0.00347667 0.0219734 0.00392112 0 0 0 -4.25648e-05 2.37673e-05 5.57005e-05 1.55173e-05 3.51124e-05 -8.17472e-06 -0.00558052 -0.00219678 0.0116097 0.004 300 0 
718 1 1 0.0413198 0.0203658 0.00393008 0 0 0 4.62481e-05 2.64677e-05 -5.42077e-05 4.06571e-05 3.47151e-05 -5.33881e-05 -0.00289774 -0.000586355 -0.00293737 0.004 300 0 
101 1 1 -0.0371145 0.0272995 0.00390412 0 0 0 -7.28089e-07 -5.49315e-06 1.68296e-05 -7.04842e-05 -6.69853e-05 -0.000138434 -0.0059742 0.00417774 -0.00567265 0.004 300 0 
246 1 1 -0.0290565 0.0272808 0.00398276 0 0 0 -0.000130732 -5.80646e-06 4.14745e-05 -0.000242891 -7.85053e-05 -0.000112094 -0.00700199 -0.0292608 0.0228506 0.004 300 0 
331 1 1 -0.0212281 0.0257798 0.00390026 0 0 0 -1.97024e-05 3.14483e-05 9.65815e-05 -7.64745e-05 2.94344e-05 -0.000119935 -0.000186298 0.00473277 -0.000414555 0.004 300 0 
846 1 1 -0.0134709 0.0274169 0.00397485 0 0 0 1.99096e-05 -3.24338e-05 6.56517e-05 5.40764e-05 -7.42163e-05 -6.93567e-05 0.00930408 0.00811258 -0.0192252 0.004 300 0 
348 1 1 -0.00329924 0.026061 0.00393379 0 0 0 -3.00153e-05 3.92594e-05 5.33462e-05 5.623e-05 2.50453e-05 -2.96248e-05 -0.00503385 -5.09597e-05 -0.0226521 0.004 300 0 
786 1 1 0.0084035 0.0281549 0.00389704 0 0 0 -5.37202e-05 3.66832e-05 4.40673e-06 -2.67883e-05 3.00567e-05 -1.67456e-05 -0.0083438 -0.00441053 -0.0117481 0.004 300 0 
316 1 1 0.0162833 0.0272926 0.00390652 0 0 0 -3.68764e-05 -8.71924e-06 -4.69717e-05 -5.93757e-05 -8.5109e-07 1.61012e-05 0.00731396 0.00270166 -0.00336843 0.004 300 0 
495 1 1 0.028886 0.0264617 0.00396738 0 0 0 2.11263e-05 -3.8715e-05 -4.57398e-05 3.71591e-05 -9.03789e-05 -3.82215e-05 0.00571514 0.00347823 0.000222748 0.004 300 0 
863 1 1 0.0367262 0.0277632 0.00392951 0 0 0 4.05689e-05 -4.36947e-06 -4.17398e-05 6.45024e-05 -2.7136e-05 -4.11332e-05 0.00193423 0.0061221 0.0101787 0.004 300 0 
511 1 1 -0.00761843 0.0327131 0.00388561 0 0 0 -2.37172e-05 2.08649e-05 3.5806e-05 9.12004e-05 -6.5834e-05 -2.26125e-05 -0.00784855 -0.00208741 0.0335242 0.004 300 0 
722 1 1 0.00164028 0.0322873 0.00396646 0 0 0 -5.6785e-05 1.07493e-05 2.67396e-05 1.5504e-05 1.28583e-06 -9.12024e-06 0.00838577 -0.00230611 0.0213747 0.004 300 0 
2 1 1 0.0229311 0.0316959 0.00396264 0 0 0 -1.29792e-05 -8.91243e-06 -6.28666e-05 -1.79282e-05 -5.04652e-05 -3.13359e-06 -0.00389171 -0.0132758 -0.00510989 0.004 300 0 
254 1 1 0.0306666 0.0342669 0.00398149 0 0 0 -0.00121934 -0.000570646 -2.69315e-05 4.33978e-06 4.89152e-06 3.04113e-05 0.143216 -0.305634 -0.133993 0.004 300 0 
257 1 1 -0.029632 0.0352232 0.00395612 0 0 0 -9.41127e-05 -3.61186e-05 2.95728e-05 -0.000189311 -3.07745e-05 -0.000139591 0.0058812 -0.0190829 -0.0352833 0.004 300 0 
582 1 1 -0.0157651 0.0356209 0.00393216 0 0 0 -0.000270451 2.41307e-05 0.000100769 -0.000362129 -0.000335005 -0.00012144 -0.0141719 -0.0677719 -0.0174168 0.004 300 0 
255 1 1 -0.00267125 0.0389319 0.00391157 0 0 0 -9.03594e-05 1.33629e-05 2.69406e-05 -2.81584e-05 -3.3739e-05 1.41144e-05 -0.000680795 -0.0169374 -0.0125112 0.004 300 0 
887 1 1 0.00812086 0.0373182 0.00392901 0 0 0 -5.05316e-05 -9.9853e-07 2.85241e-05 -9.68603e-05 -7.4779e-06 -2.31364e-05 -0.00337057 -0.0148339 0.00174808 0.004 300 0 
719 1 1 0.0157853 0.035195 0.00398375 0 0 0 -1.36109e-06 -5.26559e-07 -9.97658e-06 -0.000116261 -5.18268e-05 -1.98582e-05 0.000862714 0.0210816 -0.00172119 0.004 300 0 
21 1 1 0.0234243 0.0396338 0.00391505 0 0 0 8.41261e-06 1.37218e-05 -4.88397e-05 -2.84595e-05 -4.45463e-05 -3.24711e-06 0.00115242 0.00384506 0.00425343 0.004 300 0 
325 1 1 -0.0222386 0.0402985 0.00393953 0 0 0 -0.000119142 1.81355e-05 -2.51862e-05 -0.000136108 1.32407e-05 -0.000150756 0.00608665 -0.011175 -0.027731 0.004 300 0 
595 1 1 -0.0149309 0.0435394 0.00398246 0 0 0 -7.97813e-05 9.18363e-06 1.18912e-05 -4.07548e-05 -0.000125687 7.83607e-05 -0.00786373 -0.00355791 -0.0142765 0.004 300 0 
568 1 1 0.0162912 0.0430934 0.00392633 0 0 0 -3.55105e-06 -2.61379e-06 -1.60517e-05 -7.08343e-05 -3.89671e-05 1.95441e-05 0.00139321 0.000257714 0.0018434 0.004 300 0 
387 1 1 -0.00719694 0.045487 0.00389935 0 0 0 -4.57889e-05 1.3467e-05 -3.21496e-06 2.81545e-07 -3.90981e-05 2.33781e-05 -0.00148724 -0.00896514 -0.00192053 0.004 300 0 
852 1 1 0.00075887 0.0460615 0.00397623 0 0 0 -2.23029e-05 7.22769e-06 1.62647e-05 -1.60064e-05 -2.99387e-06 -7.57864e-06 -0.00522843 0.00125971 -0.00239133 0.004 300 0 
157 1 1 0.00865317 0.0452492 0.00389833 0 0 0 -1.54699e-05 3.41525e-06 -5.08984e-06 -5.807e-05 1.64452e-05 -5.64601e-06 -0.00160122 0.000764309 -0.00486635 0.004 300 0 
400 1 1 -0.0247518 -0.0387967 0.00974456 0 0 0 5.20154e-06 7.71766e-06 -1.62923e-05 6.21576e-05 -2.23408e-05 2.12592e-05 -0.00157299 0.000881114 0.00069277 0.004 300 0 
606 1 1 -0.000654773 -0.0387272 0.00813768 0 0 0 3.19476e-05 -1.29336e-05 -3.04091e-05 2.07614e-05 5.64416e-05 2.01218e-05 -0.00575008 -0.00264706 0.00202458 0.004 300 0 
724 1 1 -0.0339142 -0.0311601 0.00984796 0 0 0 -1.05917e-05 5.99192e-06 -7.63502e-06 1.63535e-06 2.52101e-05 6.28216e-06 0.00405239 0.00394209 -0.00196708 0.004 300 0 
183 1 1 0.0251949 -0.0311656 0.00751575 0 0 0 7.01232e-06 0.000160452 8.75121e-05 -0.000156082 -0.00015216 -3.01566e-05 -0.00384359 0.00793218 -0.0206879 0.004 300 0 
544 1 1 -0.014022 -0.0253036 0.00875037 0 0 0 1.74286e-05 -5.26085e-05 -6.0209e-05 -4.44209e-05 1.05289e-05 0.000124941 0.000818357 -0.0110024 -0.00957013 0.004 300 0 
29 1 1 -0.00450718 -0.0263797 0.00900541 0 0 0 7.93291e-05 -0.000144806 -2.63438e-05 -7.57469e-05 -2.53545e-05 6.85405e-05 -0.018867 -0.00322515 -0.0250094 0.004 300 0 
248 1 1 0.00349901 -0.027842 0.00763146 0 0 0 2.86253e-06 -4.20401e-06 6.89476e-05 -5.76154e-05 0.000117568 2.60057e-05 0.00598325 0.00254342 0.00294328 0.004 300 0 
79 1 1 0.0358374 -0.0289482 0.0095971 0 0 0 2.5554e-05 4.24769e-05 -1.18029e-05 -2.0345e-05 -0.000124977 -2.0008e-05 -0.0489516 0.0430413 -0.0145256 0.004 300 0 
291 1 1 -0.00458928 -0.0173976 0.00909437 0 0 0 4.53729e-05 -0.000124487 0.000122696 -0.000258252 5.40407e-05 7.24829e-05 -0.0114665 -0.0354087 0.0249917 0.004 300 0 
891 1 1 0.00373472 -0.0155281 0.00632433 0 0 0 -2.90289e-05 -5.367e-05 0.0001023 -0.000188552 0.000254803 5.9872e-05 -0.0235029 -0.000696677 0.0116297 0.004 300 0 
870 1 1 0.0138326 -0.0156365 0.00831016 0 0 0 1.19261e-05 2.95809e-05 0.000116692 -1.00406e-07 0.000204409 -0.000170285 -0.0187408 0.000514148 0.0258557 0.004 300 0 
777 1 1 0.0349671 -0.0187813 0.00771679 0 0 0 0.000231268 0.000132678 -0.000562066 9.40583e-06 -2.54926e-05 0.000101232 0.121457 0.0360431 0.0423726 0.004 300 0 
837 1 1 -0.0294493 -0.0146726 0.00803198 0 0 0 -8.85823e-05 4.15958e-05 2.07678e-05 -5.38474e-05 -3.72084e-06 -2.99596e-05 0.0100843 -0.0058041 0.000845717 0.004 300 0 
445 1 1 -0.0181359 -0.0138513 0.0099519 0 0 0 2.05524e-05 1.45068e-06 1.90056e-05 -9.56167e-05 6.00623e-05 0.000194122 0.00807902 0.0335941 0.0096452 0.004 300 0 
783 1 1 0.00485905 -0.00860711 0.00993717 0 0 0 9.98548e-05 7.81002e-06 0.000112828 -0.000300908 0.000278035 0.000110682 0.00415486 0.0190772 -0.0311936 0.004 300 0 
615 1 1 -0.0350999 -0.00075864 0.00955136 0 0 0 -7.3493e-05 4.73946e-05 1.81853e-05 -0.000166887 -0.00017722 -0.000106035 0.00617646 0.00210261 -0.00125214 0.004 300 0 
476 1 1 -0.0459522 0.00262096 0.00988903 0 0 0 -5.79414e-05 -1.92773e-05 4.62415e-05 6.08275e-06 -0.000119007 -1.66096e-05 0.0235078 -0.0187421 -0.00911222 0.004 300 0 
16 1 1 -0.0210456 0.00169404 0.00830868 0 0 0 1.57662e-05 -4.1341e-05 3.22257e-05 -5.35658e-06 1.1068e-05 0.000183 0.0013923 0.0170569 -0.00514535 0.004 300 0 
303 1 1 0.0459487 0.00350411 0.00962687 0 0 0 8.80098e-05 4.63777e-05 -0.000124534 -7.30993e-05 -0.000146406 -3.87479e-05 -0.0258018 -0.0196343 -0.00921324 0.004 300 0 
523 1 1 -0.0389799 0.0080308 0.00932828 0 0 0 -7.17483e-05 -1.38414e-05 5.18963e-06 -1.76499e-05 -0.000188136 6.34166e-05 0.00672935 0.00312761 0.00901223 0.004 300 0 
704 1 1 -0.0107982 0.00519197 0.00743785 0 0 0 4.05966e-05 -4.69158e-05 5.9032e-05 -4.92441e-06 0.000250512 0.0002875 -0.0080848 -6.33238e-05 0.00155558 0.004 300 0 
454 1 1 0.00101164 0.00715874 0.00933952 0 0 0 3.50744e-05 3.32461e-06 2.82281e-05 -0.000120077 0.000396118 2.1175e-05 0.0192833 0.0169216 0.0172265 0.004 300 0 
31 1 1 0.0102163 0.00547561 0.00832593 0 0 0 4.84626e-05 8.27233e-06 -8.37403e-05 -2.56248e-05 -8.24957e-06 0.000144823 -0.0116569 0.0376685 0.0163756 0.004 300 0 
135 1 1 0.0188883 0.00749143 0.00960822 0 0 0 0.000285803 -0.000124215 -9.62714e-05 -9.62583e-05 -4.82247e-05 4.15464e-05 0.0467193 0.0231612 0.109786 0.004 300 0 
712 1 1 0.0281137 0.00743212 0.00998953 0 0 0 0.000168211 0.000192471 -0.000298013 -3.23589e-05 -2.45796e-05 -3.97825e-05 0.0359711 -0.00262189 -0.00289714 0.004 300 0 
210 1 1 0.0394929 0.00814602 0.00989912 0 0 0 0.000162545 1.43813e-05 -0.00021216 3.21539e-05 -0.000170215 -5.6388e-05 -0.00212743 0.0202939 0.00675269 0.004 300 0 
651 1 1 -0.0437988 0.0143398 0.00823563 0 0 0 -4.90292e-05 -2.76134e-05 -3.55806e-05 -3.98438e-06 -4.67985e-05 2.40752e-05 0.0144619 -0.00689616 -0.00590506 0.004 300 0 
621 1 1 0.043718 0.0147845 0.00900796 0 0 0 7.63756e-05 -2.51e-05 -0.000118687 2.43094e-05 -5.65323e-05 -9.0711e-05 0.02363 -0.0158856 0.00661004 0.004 300 0 
726 1 1 -0.0257657 0.0199972 0.00692835 0 0 0 -8.30134e-07 7.2545e-07 3.96096e-05 -6.50787e-05 -6.89567e-05 -0.000186774 0.00897078 -0.00890649 0.00857703 0.004 300 0 
230 1 1 -0.00847479 0.0245947 0.0097378 0 0 0 -6.62586e-05 3.77072e-05 0.000100777 -1.17942e-05 5.73317e-05 -6.49338e-05 -0.00222559 0.000174683 0.0292601 0.004 300 0 
320 1 1 -0.00171295 0.0204045 0.00979393 0 0 0 -3.51991e-05 9.15966e-05 0.000106688 5.04905e-05 0.000144798 -4.7847e-05 -0.000191766 -0.000107039 -0.0110248 0.004 300 0 
7 1 1 0.0129208 0.0224299 0.0091856 0 0 0 1.74607e-05 8.17739e-06 -3.89422e-05 -2.38879e-05 6.9189e-05 -4.22527e-05 -0.0137661 0.0204375 0.00564983 0.004 300 0 
83 1 1 0.0214163 0.0239648 0.00888479 0 0 0 6.76673e-06 3.53836e-07 -0.000141109 -9.88656e-06 4.155e-05 9.84244e-06 -0.00917039 0.0218213 2.79392e-05 0.004 300 0 
747 1 1 -0.0337321 0.0313835 0.00974104 0 0 0 1.33654e-06 -3.05765e-05 -1.30617e-05 -1.87011e-05 8.74321e-06 -0.000320733 0.00385049 0.00262745 -0.00316303 0.004 300 0 
51 1 1 -0.0226189 0.0329655 0.00703465 0 0 0 -0.000145417 1.94094e-05 5.99544e-05 -0.000256285 -2.23892e-05 -0.000334985 -0.0330133 0.0380083 0.0409875 0.004 300 0 
116 1 1 -0.00940735 0.0391202 0.00809831 0 0 0 -0.000117606 4.85794e-05 1.04142e-05 -4.67678e-05 -8.75602e-05 -1.41861e-05 -0.0064417 0.000512575 -0.00953432 0.004 300 0 
205 1 1 -0.000560783 -0.046078 0.0110165 0 0 0 2.5048e-05 1.70903e-05 -1.40624e-05 7.11028e-05 3.14271e-05 -3.85653e-05 -0.00221899 -0.00308223 0.00169232 0.004 300 0 
836 1 1 0.00737914 -0.0454692 0.0106589 0 0 0 8.86162e-05 2.6925e-05 3.3699e-05 0.000110665 2.6901e-05 4.61987e-05 0.0136486 -0.0175809 -0.0220966 0.004 300 0 
486 1 1 -0.0156955 -0.0402402 0.0103371 0 0 0 5.72321e-06 -1.65195e-05 -4.88264e-05 2.75724e-05 5.39212e-05 5.65628e-05 0.0020818 0.00221312 -0.00411335 0.004 300 0 
311 1 1 -0.00836854 -0.0439911 0.0106791 0 0 0 -3.17007e-05 -2.70908e-05 -3.40632e-05 0.000166858 0.000194083 -3.57255e-05 0.00600094 -0.00557441 0.0118478 0.004 300 0 
447 1 1 0.0180544 -0.0423883 0.0118321 0 0 0 8.98277e-05 6.67065e-05 8.29326e-05 4.05243e-05 9.96383e-06 5.41058e-05 0.00507108 0.0228589 -0.0179381 0.004 300 0 
538 1 1 -0.0295741 -0.0353513 0.0149852 0 0 0 -9.3698e-06 3.79027e-06 -2.33914e-05 1.38689e-05 1.13938e-05 -2.06022e-05 -0.0033943 -0.00259326 0.00178577 0.004 300 0 
279 1 1 0.011154 -0.038542 0.0114134 0 0 0 0.000120478 6.18865e-05 8.29324e-05 7.07172e-05 4.86988e-05 5.45793e-05 -0.0225569 -0.00647502 0.0218383 0.004 300 0 
110 1 1 0.0250456 -0.0386632 0.0117245 0 0 0 7.08986e-05 8.23668e-05 6.70594e-06 6.17287e-05 -3.6064e-05 6.5263e-05 -0.000474674 0.01564 0.00768998 0.004 300 0 
188 1 1 -0.0179037 -0.0321023 0.0101578 0 0 0 -6.89986e-06 -3.78955e-05 -7.2209e-05 3.36789e-05 4.48986e-05 8.55183e-05 0.000337257 -0.0014239 0.00409392 0.004 300 0 
810 1 1 -0.0102612 -0.0344509 0.0102031 0 0 0 3.2505e-05 -5.79856e-05 -5.32119e-05 -3.58561e-06 8.20496e-06 9.57451e-05 -0.00596742 -0.00287974 -0.00948609 0.004 300 0 
412 1 1 -0.00316849 -0.0328814 0.01335 0 0 0 3.55305e-05 -5.55518e-05 -1.31672e-05 4.70543e-06 -6.99216e-06 6.97758e-05 -0.00242623 -0.00322396 0.0118414 0.004 300 0 
545 1 1 0.00451955 -0.0343089 0.0121909 0 0 0 6.90556e-05 9.16126e-06 1.18082e-05 3.537e-06 3.46544e-05 3.60011e-05 0.00966706 -0.000120914 0.00127879 0.004 300 0 
100 1 1 0.0115057 -0.0305932 0.0117057 0 0 0 0.00010868 4.91276e-05 7.7909e-05 9.16429e-06 2.31326e-05 -5.43409e-05 0.00262615 -0.00040045 -0.00381507 0.004 300 0 
556 1 1 0.0183659 -0.0344777 0.0109247 0 0 0 9.8988e-05 8.42308e-05 0.000116664 -3.72228e-05 -4.30202e-05 9.43155e-05 0.0126292 0.000523861 0.00135496 0.004 300 0 
32 1 1 0.0311341 -0.033959 0.0134821 0 0 0 3.4393e-05 0.000128592 9.56243e-05 3.44362e-05 -0.000206605 -1.6933e-05 0.0341899 -0.0167272 -0.0121922 0.004 300 0 
5 1 1 -0.0386746 -0.0250108 0.0114412 0 0 0 -3.23146e-05 3.26344e-05 -2.27137e-05 -1.65868e-05 -7.54215e-06 2.88885e-05 -0.0135685 -0.00398043 0.00951723 0.004 300 0 
415 1 1 -0.0253873 -0.0293596 0.0104087 0 0 0 -3.11084e-05 5.56967e-06 -1.05316e-05 5.33326e-05 8.03617e-05 6.70625e-05 -0.00881907 0.0213037 -0.0158223 0.004 300 0 
446 1 1 -0.00968752 -0.0280491 0.0148331 0 0 0 3.54937e-05 -5.74038e-05 -6.71753e-05 2.4771e-05 2.71566e-05 0.000202089 -0.000676969 -0.00205244 0.0128224 0.004 300 0 
814 1 1 0.0190779 -0.0262841 0.0103728 0 0 0 0.000127995 0.000131873 6.75848e-05 0.00011729 -5.06034e-05 -2.56645e-05 0.0229903 0.0444638 0.0111788 0.004 300 0 
24 1 1 0.0289653 -0.0255379 0.0115698 0 0 0 4.66613e-05 0.000130348 6.93465e-05 -1.16069e-05 -0.000264886 1.68866e-06 0.00281271 0.000359803 0.00809064 0.004 300 0 
266 1 1 -0.0293337 -0.0224286 0.0104512 0 0 0 -7.31391e-05 -1.2874e-06 2.09559e-06 5.47225e-05 5.92425e-05 9.8311e-05 0.00482294 -0.0027219 0.0145799 0.004 300 0 
487 1 1 -0.0208111 -0.0214239 0.0102402 0 0 0 3.14167e-05 -3.25996e-05 -2.25015e-05 9.79636e-05 -1.22033e-05 4.60698e-05 0.0168475 0.0194784 0.00594004 0.004 300 0 
655 1 1 0.00191938 -0.0211547 0.0115782 0 0 0 5.63049e-05 -3.52812e-06 0.000173772 -0.000126991 0.000104455 -2.17647e-05 0.0120887 0.027632 0.00136261 0.004 300 0 
243 1 1 0.0112835 -0.0227132 0.0108918 0 0 0 0.000100831 3.26796e-05 0.000154205 8.44894e-05 7.2412e-05 -6.19022e-05 0.00234149 0.0180462 0.0119724 0.004 300 0 
528 1 1 0.0400461 -0.0227774 0.0122712 0 0 0 7.40134e-05 5.91415e-05 -0.000416283 0.000113748 -7.01985e-05 8.15585e-05 -0.0827343 -0.098292 -0.0340767 0.004 300 0 