ITEM: TIMESTEP
7200
ITEM: NUMBER OF ATOMS
891
ITEM: BOX BOUNDS mm mm mm
-0.05 0.05
-0.05 0.05
0 0.15
ITEM: ATOMS id type type x y z ix iy iz vx vy vz fx fy fz omegax omegay omegaz radius f_Temp[0] f_heatFlux[0] 
199 1 1 -0.00423523 -0.0458379 0.00394899 0 0 0 -0.00447283 0.000817353 -0.00459845 0.00143906 0.00493174 0.0119437 -0.185842 -1.8668 0.661767 0.004 300 0 
873 1 1 -0.0199748 -0.041582 0.00387563 0 0 0 -0.0122407 0.00857958 -0.00154776 -0.00307158 -0.00259549 0.00209663 -2.29434 -3.19593 3.01338 0.004 300 0 
485 1 1 -0.0124882 -0.0443079 0.0039639 0 0 0 -0.0220901 0.00622825 -0.00042047 -0.000773438 0.000239197 0.00512273 0.585914 -2.3627 0.273638 0.004 300 0 
850 1 1 0.0035269 -0.0440653 0.00394787 0 0 0 -0.00159474 -0.0060079 0.00164176 0.00544552 0.000545135 0.00653514 1.02623 -0.810001 -0.202118 0.004 300 0 
186 1 1 0.0114777 -0.0445954 0.00391476 0 0 0 -0.00138179 -0.00205596 0.00125785 -0.00217589 0.00117175 0.0102156 0.430851 -0.419749 0.792499 0.004 300 0 
560 1 1 0.0189748 -0.0419979 0.0039287 0 0 0 0.000975283 -0.00172999 0.000563543 -0.00190397 -0.00550771 -0.00165339 0.0937281 0.535346 -0.635053 0.004 300 0 
102 1 1 -0.0146396 -0.035793 0.00384344 0 0 0 -0.016009 0.0120939 0.00259911 0.000708867 -0.00986186 0.00550551 -2.97167 -4.2223 -1.25915 0.004 300 0 
88 1 1 -0.00714707 -0.0384059 0.00392927 0 0 0 -0.0189122 0.0019037 0.00488121 -0.00334102 -0.000254385 0.00141207 1.41695 2.66051 -1.26945 0.004 300 0 
776 1 1 0.00526331 -0.0353255 0.00393485 0 0 0 -0.00286984 -0.00103248 0.000133985 -0.00491261 -0.00299436 -0.000848724 -0.0601278 -0.118423 -0.354346 0.004 300 0 
410 1 1 0.0130359 -0.0367997 0.00413391 0 0 0 -0.000745538 -0.0024223 -0.0463799 -0.00828725 -0.00450137 -0.00187201 -0.00533275 3.06359 0.217884 0.004 300 0 
282 1 1 0.0258549 -0.038144 0.00389524 0 0 0 0.000828478 -0.0036128 0.00117342 -0.00396511 -0.00434844 -0.00151153 0.661941 -0.602102 0.612556 0.004 300 0 
682 1 1 -0.0300808 -0.0349761 0.00391816 0 0 0 -0.00988141 0.00343319 -0.00083149 0.000391405 -0.00616909 -0.000688666 -0.555398 -1.06359 2.43532 0.004 300 0 
251 1 1 -0.0223077 -0.03398 0.00392531 0 0 0 -0.0151445 0.0107669 -0.00113429 0.0012592 -0.00218593 0.000210516 1.42805 1.74419 -0.129985 0.004 300 0 
770 1 1 -0.00202669 -0.0321599 0.00393102 0 0 0 -0.00762946 -0.00431231 -0.000504936 -0.00280581 -0.00548352 0.000279297 0.961089 -1.55795 0.536657 0.004 300 0 
883 1 1 0.0182259 -0.0307977 0.00389531 0 0 0 0.00174226 -0.00408244 -0.00219742 0.00102059 -0.00468325 0.00335718 0.817419 0.447865 -0.416532 0.004 300 0 
838 1 1 0.0320166 -0.0331695 0.00394436 0 0 0 0.00440554 0.000743028 0.00209626 -0.00380367 0.00367393 0.000545809 -0.124785 1.27234 -0.789002 0.004 300 0 
617 1 1 -0.0371045 -0.0273259 0.00389466 0 0 0 -0.00155802 0.00130271 -0.0016859 0.012432 -0.0115131 0.0051557 -1.48594 -0.84255 1.4077 0.004 300 0 
824 1 1 -0.0291502 -0.0271155 0.00392997 0 0 0 -0.00423713 -0.000153856 0.00308453 0.016337 -0.00525239 -0.00342763 -0.23442 -2.00564 -0.0696514 0.004 300 0 
571 1 1 -0.0203649 -0.0263095 0.00392848 0 0 0 -0.0104192 0.00814918 -0.0041817 -0.00926296 -0.000264152 0.00965777 -1.33484 0.87962 -1.75947 0.004 300 0 
861 1 1 -0.00955127 -0.0297426 0.00387988 0 0 0 -0.00514885 0.00379422 -0.00335387 -0.0012058 -0.00319283 0.0168749 -1.00571 -1.18533 -2.78487 0.004 300 0 
434 1 1 0.0104433 -0.0293095 0.00391884 0 0 0 -0.00180298 -0.00336143 0.000823532 -0.00263535 -0.00267399 -0.00157027 0.867777 -0.0799404 1.13108 0.004 300 0 
103 1 1 0.0311527 -0.0253242 0.00390151 0 0 0 0.0042941 0.00343828 -7.20827e-05 0.00178276 8.19821e-05 0.000458632 -0.559661 0.603087 0.26965 0.004 300 0 
769 1 1 -0.041249 -0.0204983 0.00446776 0 0 0 -0.00549693 0.0145417 -0.013973 0.0004806 -0.00615042 -0.00279884 0.167375 -0.0248543 0.0269768 0.004 300 0 
94 1 1 -0.0333287 -0.0203801 0.0039207 0 0 0 -0.00543889 0.00033737 -0.0054843 0.00296996 -0.00818102 0.00311026 -0.217685 -1.36283 -0.814337 0.004 300 0 
40 1 1 -0.0253485 -0.0201486 0.00391774 0 0 0 -0.00808875 0.00421298 -0.00380753 -0.0061427 0.00359644 0.0029638 -0.028592 -1.53735 -0.961267 0.004 300 0 
19 1 1 -0.00858807 -0.0219018 0.00392508 0 0 0 -0.00538803 0.00365679 -0.00577946 -0.0130795 0.0030481 0.0195635 -0.276399 -0.462157 2.43339 0.004 300 0 
442 1 1 -0.000376865 -0.0218073 0.00390085 0 0 0 0.00185114 0.000453762 -0.00396611 -0.00755518 -0.00786397 0.00343001 1.6635 -0.558262 1.10403 0.004 300 0 
259 1 1 0.00758953 -0.0219312 0.00390485 0 0 0 -0.00511799 -0.00431138 0.000628123 -0.000122877 0.00722634 0.00109167 0.0995158 -1.56107 -0.495389 0.004 300 0 
512 1 1 0.0154283 -0.0231051 0.00396675 0 0 0 -0.00254069 -0.00440295 0.00116472 -0.00108283 -0.00250771 -6.11128e-06 -0.21584 1.35271 0.0474094 0.004 300 0 
470 1 1 0.023264 -0.0243609 0.00394233 0 0 0 0.00135857 -0.0052269 -0.00398448 0.0017387 -0.00320372 0.0104148 1.37499 0.431861 0.461912 0.004 300 0 
451 1 1 0.0390131 -0.0245199 0.00391026 0 0 0 0.0046384 0.00793984 0.00439775 0.00582508 0.00136542 -0.00157064 0.642016 -1.56999 1.14001 0.004 300 0 
531 1 1 -0.016611 -0.0192483 0.00397657 0 0 0 0.016299 0.00838847 -0.00473324 0.00109513 -0.0102286 -0.000333609 -1.91353 0.430531 5.31258 0.004 300 0 
229 1 1 0.0203242 -0.0168405 0.00384022 0 0 0 -0.00297629 -0.00188375 0.00115366 0.0031936 -0.00565362 0.00753814 0.563961 -0.833019 -0.372019 0.004 300 0 
734 1 1 0.028105 -0.0180287 0.00391806 0 0 0 -0.00451289 0.00190008 0.00114009 0.000261861 0.00225351 -0.000929091 0.301628 -0.178886 2.33833 0.004 300 0 
635 1 1 0.0425715 -0.0174951 0.00392048 0 0 0 -0.000342506 0.00912663 0.00359639 0.0052677 0.00362891 0.00281242 -1.77951 -0.522863 0.405501 0.004 300 0 
87 1 1 -0.0447844 -0.0106556 0.00391609 0 0 0 0.00158785 -0.000624326 -0.000503914 -1.77798e-05 0.00995454 0.0069719 -0.462385 0.414335 0.739277 0.004 300 0 
406 1 1 -0.0373814 -0.0135683 0.00394853 0 0 0 0.00587797 0.00833025 0.00155622 -0.00407125 -0.00886546 -0.0187093 1.47827 1.05418 -2.20078 0.004 300 0 
224 1 1 -0.0230713 -0.0125744 0.00389195 0 0 0 -8.02217e-05 -0.000935636 -0.00175268 0.00173316 0.00461163 -0.00512703 0.385647 -0.199582 2.75911 0.004 300 0 
751 1 1 -0.0101178 -0.0141639 0.00392832 0 0 0 -0.0275878 -0.000212352 -0.0149556 0.0112202 0.0266512 0.0531169 -2.12067 -0.251063 2.46122 0.004 300 0 
622 1 1 -0.00257615 -0.0115827 0.00384053 0 0 0 -0.0162914 -0.0103722 -0.00440578 0.00984371 0.00376656 0.00839324 2.18253 -3.96771 2.64205 0.004 300 0 
128 1 1 0.00959704 -0.0108046 0.00386644 0 0 0 0.00201111 -0.00063023 -0.00606222 0.00263303 -0.000557156 0.00358039 0.135985 0.508356 -1.07477 0.004 300 0 
68 1 1 0.0266565 -0.0102684 0.00395786 0 0 0 -0.0279339 0.00327812 0.00718977 -3.81884e-05 -0.00421091 -0.00421483 1.61729 -2.02373 3.16663 0.004 300 0 
791 1 1 0.0359234 -0.0129418 0.00395373 0 0 0 0.00257489 0.0168544 0.00249263 -0.00922712 0.00171044 -0.00333634 -1.44415 0.543357 -5.6605 0.004 300 0 
354 1 1 -0.0382237 -0.0056736 0.00389794 0 0 0 0.00664984 0.0142283 0.00214033 -0.00156284 0.00376149 -0.0100903 -3.14709 1.68247 2.71405 0.004 300 0 
725 1 1 -0.0306083 -0.00796292 0.00390016 0 0 0 0.00236366 0.02022 -4.85546e-05 -0.00433868 0.0153144 -0.0100197 -0.499584 -1.14188 -1.91261 0.004 300 0 
353 1 1 -0.01607 -0.00889761 0.0039506 0 0 0 -0.0113333 0.0180835 -0.000191216 0.0010379 -0.00749596 -0.0102581 0.313239 0.0238805 0.878065 0.004 300 0 
391 1 1 -0.00855539 -0.00637542 0.00391525 0 0 0 -0.0079111 -0.00432873 0.00582661 0.00595404 0.0110375 -0.0128968 0.809932 -1.44016 -5.90191 0.004 300 0 
683 1 1 0.0174207 -0.00942771 0.00387617 0 0 0 0.00104451 0.000365026 0.00348945 0.00102428 -0.0114975 0.0077838 0.0100987 0.322652 -0.658002 0.004 300 0 
690 1 1 0.038412 -0.00539701 0.00388676 0 0 0 0.00530846 0.0133063 0.000210855 0.000342424 0.00106319 -1.07622e-05 -3.01544 1.05013 2.69819 0.004 300 0 
10 1 1 0.0449408 -0.00996809 0.0039784 0 0 0 0.000185837 0.00660893 0.00264117 0.00127373 -0.00051666 -0.00385396 1.61144 -0.01154 -0.549615 0.004 300 0 
402 1 1 -0.0460117 -0.00283889 0.00390163 0 0 0 -0.00117721 -0.00139004 0.00236621 -0.0119336 0.00382953 0.00147704 0.512336 -0.476022 -0.336085 0.004 300 0 
761 1 1 -0.0294312 -0.000180541 0.00388977 0 0 0 -0.0143437 0.0199831 0.00440413 0.000243937 0.00531411 -0.00595847 2.26094 2.61303 6.11862 0.004 300 0 
293 1 1 -0.0228441 -0.00466613 0.00393619 0 0 0 -0.0279117 0.00194868 0.0050884 0.00211876 0.00438407 0.000245057 -1.09884 -3.62888 2.61111 0.004 300 0 
384 1 1 -0.0149508 -0.00100585 0.00396827 0 0 0 0.0531645 0.0112344 0.0054393 -0.0166664 -0.00922653 -0.00319808 -4.21883 -1.33687 4.18975 0.004 300 0 
378 1 1 0.00171223 -0.00487733 0.00393852 0 0 0 -0.0223025 -0.0069988 -0.00321375 -0.00494641 0.00781844 0.00540564 -1.1339 2.64507 -1.00494 0.004 300 0 
390 1 1 0.0106106 -0.00291121 0.00394661 0 0 0 0.000250017 0.00349566 -0.000360093 0.00419745 -0.00160732 -0.000227276 -0.731125 -0.395962 1.74167 0.004 300 0 
411 1 1 0.022624 -0.0034465 0.00393933 0 0 0 -0.0123428 0.0128736 0.00463606 -0.00390763 -0.00752134 -0.00290776 -0.140944 -1.24465 -7.98778 0.004 300 0 
342 1 1 0.0306831 -0.00342137 0.00397241 0 0 0 0.00191873 -0.0122193 0.00333021 -0.00229337 -0.00245453 0.00104968 0.254266 0.269606 -5.35051 0.004 300 0 
262 1 1 0.0460366 -0.00214776 0.0039591 0 0 0 0.0019328 0.00583571 0.00150758 -0.00300582 0.00111752 0.000228767 -1.87648 0.641789 -0.643274 0.004 300 0 
261 1 1 -0.0398895 0.00213778 0.00390352 0 0 0 -0.0116929 0.00788268 0.00901959 -0.00166011 -0.00292208 -0.00899024 -2.64792 -3.03406 4.00037 0.004 300 0 
666 1 1 -0.00430452 0.000325585 0.0039684 0 0 0 -0.0158269 -0.00125058 0.00380162 -0.000883122 0.00385694 0.0046604 -2.15377 -0.590054 6.1145 0.004 300 0 
815 1 1 0.00475555 0.00246321 0.00393646 0 0 0 -0.0152445 -0.00962593 -0.00229555 -0.0030538 0.00286188 0.00297462 2.02046 -0.972404 -0.651659 0.004 300 0 
306 1 1 0.0163706 0.00257273 0.00395919 0 0 0 0.0112831 -0.00812971 0.00324113 -0.000197281 0.00813526 0.00920212 1.0487 0.0672704 -1.85834 0.004 300 0 
178 1 1 0.0241355 0.00433522 0.00383521 0 0 0 0.0133303 0.00463777 0.00382645 0.00373355 0.00404246 -0.00334455 -0.57285 3.76112 1.4146 0.004 300 0 
862 1 1 0.0321885 0.00438056 0.00390821 0 0 0 -0.00911055 -0.0102766 0.00385536 -0.00972853 0.00350931 0.00315596 2.27765 0.299142 1.02513 0.004 300 0 
661 1 1 0.039931 0.00284216 0.00393403 0 0 0 -0.00431905 0.0022349 0.000668786 -0.00270711 0.00484906 0.00427642 0.199843 -0.296826 2.49502 0.004 300 0 
677 1 1 -0.0453674 0.00787851 0.0039514 0 0 0 0.00575916 0.0239169 -0.000256832 -0.00205447 -0.00536801 0.013587 -4.77233 2.97834 -5.98107 0.004 300 0 
12 1 1 -0.0333802 0.00665202 0.00389609 0 0 0 -0.0177614 0.00854972 0.00704377 0.0119539 -0.0109482 0.000432765 -2.47254 -1.34686 -2.6375 0.004 300 0 
420 1 1 -0.025424 0.00662824 0.00394568 0 0 0 -0.010093 0.0160269 0.0061788 0.0120962 -0.00240919 -0.00174836 -4.55873 1.27371 4.21372 0.004 300 0 
654 1 1 -0.0175502 0.00721344 0.00390278 0 0 0 -0.00807756 0.0564266 0.00058892 0.0154706 -0.050291 -0.000735345 -6.77739 -3.76933 7.07102 0.004 300 0 
145 1 1 -0.00446675 0.00825076 0.00384448 0 0 0 0.000547449 -0.00215058 -0.00130527 -0.0184371 0.00393655 0.00142245 0.357307 0.864637 -9.36116 0.004 300 0 
624 1 1 0.0451825 0.00882244 0.00389423 0 0 0 0.000865708 -0.00405462 -0.00273377 -0.00257149 0.00376192 -2.91857e-05 1.54527 0.498948 -1.40629 0.004 300 0 
613 1 1 -0.0375358 0.0133346 0.00383079 0 0 0 0.011688 0.0231478 0.00772698 0.00140931 -0.0150466 0.00343827 -0.347997 0.763019 -5.20519 0.004 300 0 
265 1 1 -0.0293277 0.0134816 0.00397606 0 0 0 -0.019695 0.00873587 0.00250581 0.0132239 -0.00360014 0.010775 2.51913 -0.000656184 -0.469933 0.004 300 0 
273 1 1 -0.021387 0.0141374 0.00389493 0 0 0 -0.019642 0.0261541 -0.00167823 0.00634408 -0.00550533 0.0212798 -2.32059 -1.25567 -4.688 0.004 300 0 
492 1 1 -0.0119324 0.012893 0.00398045 0 0 0 0.0136977 -0.00183778 -0.00197179 -0.0051462 -0.0129741 -0.0016346 1.26954 1.95968 -4.60321 0.004 300 0 
234 1 1 0.00602005 0.010333 0.00392063 0 0 0 0.000109337 -0.00633718 -0.0020594 -0.0120572 0.0077379 -0.00892839 1.76152 0.410701 -3.37496 0.004 300 0 
160 1 1 0.014402 0.0107843 0.00389937 0 0 0 -0.00230261 -0.000761894 -0.00106379 -0.00179895 0.00148005 0.0017602 0.321712 -1.07648 -1.43335 0.004 300 0 
484 1 1 0.0222204 0.0120065 0.00391675 0 0 0 0.000142638 0.000885045 0.00307376 0.00170787 0.00548501 -9.12114e-05 -0.979773 -0.360413 1.44963 0.004 300 0 
743 1 1 0.030134 0.0126339 0.00396601 0 0 0 -0.00124146 -0.00321804 0.00275904 -0.00288018 -0.000513276 0.0041547 0.222443 0.904079 -1.15756 0.004 300 0 
514 1 1 0.0380669 0.0129156 0.00386148 0 0 0 -0.00069781 -0.00639099 -0.00121574 -0.0030156 0.00570066 0.0094935 1.55162 0.0484084 0.271225 0.004 300 0 
530 1 1 -0.0159284 0.0198588 0.00393448 0 0 0 0.0201964 -0.00618862 0.000306968 -0.00478141 -0.0094273 -0.00560935 3.8662 2.59074 -6.26773 0.004 300 0 
227 1 1 -0.00718598 0.0193013 0.00397316 0 0 0 0.0393929 -0.0107576 -0.0106343 -0.022084 -0.00550378 0.00129902 4.32498 6.26799 4.18624 0.004 300 0 
392 1 1 -0.000397984 0.0150281 0.00396163 0 0 0 0.00856312 -0.0030065 -0.000317857 -0.0126152 0.00725854 -0.00685276 0.78719 2.53361 4.8255 0.004 300 0 
493 1 1 0.00982503 0.0172832 0.00394075 0 0 0 -0.00462415 -0.00144438 -0.00462041 0.00553847 0.00744207 0.00111981 0.0183845 -0.588482 2.88899 0.004 300 0 
34 1 1 0.0176419 0.018709 0.00391176 0 0 0 -0.0013891 0.00784328 0.000566139 0.00858735 -0.00448961 0.00996345 -1.97908 -0.0206552 -0.940232 0.004 300 0 
206 1 1 0.025586 0.0192108 0.00395901 0 0 0 -0.00228361 0.00125084 0.00311982 0.00214957 -0.00309309 0.000915457 -0.482763 -0.375793 -0.835858 0.004 300 0 
104 1 1 0.0334919 0.0198575 0.00390674 0 0 0 -0.00178337 -0.00500209 -0.00122786 0.000400778 0.00506002 0.0136984 1.14324 -0.525017 -0.632931 0.004 300 0 
809 1 1 -0.0413608 0.0202718 0.00397934 0 0 0 0.00871838 0.020333 -0.000884148 0.00964106 -0.027979 -0.0157007 -2.89601 1.63673 4.68622 0.004 300 0 
773 1 1 -0.0332574 0.0203041 0.00392739 0 0 0 -0.0010433 0.0159124 0.00572685 -0.0107898 0.0118122 0.0106993 -2.10778 1.83576 -6.34592 0.004 300 0 
792 1 1 0.00340484 0.0219424 0.00392375 0 0 0 -0.000273176 0.00337859 0.000138943 0.0092321 -0.000523882 -0.00240875 0.233481 0.322471 -2.09829 0.004 300 0 
718 1 1 0.041406 0.0201807 0.0039311 0 0 0 0.00106628 -0.0063456 -0.000341478 -0.00635855 0.0041148 0.00360524 1.47422 0.271452 0.276817 0.004 300 0 
101 1 1 -0.0372982 0.0270762 0.00389042 0 0 0 0.00937672 0.0171443 0.00109014 -0.00420382 0.00103646 0.00465192 1.01063 -1.65083 4.28237 0.004 300 0 
246 1 1 -0.0290807 0.0273819 0.00396996 0 0 0 -0.00808483 0.00146384 -0.00337226 0.00862724 0.00502471 0.00936899 -0.206527 -0.472688 0.789888 0.004 300 0 
331 1 1 -0.0211992 0.0258316 0.0038805 0 0 0 0.000818603 -0.0138742 0.00385216 -0.000162968 -6.39874e-05 0.0227751 2.63505 0.893203 4.71658 0.004 300 0 
846 1 1 -0.0134276 0.0273687 0.00397157 0 0 0 -0.00960554 0.00782922 0.000373619 0.0014067 -0.00756517 0.00498727 -3.02547 -1.15232 1.1929 0.004 300 0 
348 1 1 -0.00322314 0.0262239 0.00390552 0 0 0 -0.00154153 0.0027278 -0.00278972 0.00869009 0.00206715 0.00621135 0.309598 -1.92359 2.77208 0.004 300 0 
786 1 1 0.00836494 0.0280806 0.00385001 0 0 0 -0.000950183 0.00723007 0.00260988 0.0104994 0.00460223 0.00774347 -2.20695 0.171872 1.00205 0.004 300 0 
316 1 1 0.0162358 0.0272615 0.00390647 0 0 0 -0.00103981 0.00170299 0.000354765 0.0048722 0.00306714 0.00624701 -0.26774 -0.638197 -0.821722 0.004 300 0 
495 1 1 0.0290023 0.026421 0.00396008 0 0 0 0.000451137 -0.00106891 0.00282964 -0.00319244 -0.000548255 0.0032328 0.390534 0.535119 -0.516777 0.004 300 0 
863 1 1 0.0368801 0.0275448 0.00392499 0 0 0 -0.00376914 0.00749506 -0.000221271 -0.00220295 0.00182044 0.00117088 -0.864444 -0.31077 1.70944 0.004 300 0 
511 1 1 -0.00769122 0.0327732 0.00387488 0 0 0 -0.00420612 0.000582681 0.000523717 0.00352207 0.00092658 -0.00552038 -0.0873961 -1.44817 -3.61598 0.004 300 0 
722 1 1 0.00175496 0.0324183 0.00398578 0 0 0 -0.00447486 0.00155726 0.00100333 0.0035442 -0.000644145 -0.00328717 0.757846 0.207568 0.352825 0.004 300 0 
2 1 1 0.0229794 0.0316032 0.00396359 0 0 0 -0.000839835 9.05519e-05 0.00293294 -0.000930302 -0.000210124 0.00102674 -0.405981 -0.669462 0.450635 0.004 300 0 
254 1 1 0.0307429 0.0342241 0.00397846 0 0 0 -0.00503118 0.00199842 0.00139539 0.000212186 -0.000482997 0.00474308 -0.438292 -1.07221 -1.03084 0.004 300 0 
257 1 1 -0.0294301 0.0353681 0.00391088 0 0 0 -0.00149932 0.00173705 0.000365797 -0.0102303 0.00120869 -0.0115055 0.23531 -1.14952 -0.291392 0.004 300 0 
582 1 1 -0.0156867 0.0356504 0.0039264 0 0 0 -0.0107001 -0.00539902 -0.00346377 0.04726 0.0150631 -0.00129172 3.71184 -6.04168 -4.65512 0.004 300 0 
255 1 1 -0.00268698 0.0389541 0.00396514 0 0 0 -0.00161079 2.09532e-05 0.0030108 -0.00271526 -0.000537081 -0.00846609 -0.360741 0.672058 -0.408775 0.004 300 0 
887 1 1 0.00820129 0.037279 0.0039202 0 0 0 -4.73168e-05 -0.000589636 0.000591426 -0.00824041 0.00322421 -0.000428751 -0.151336 -0.179736 0.787686 0.004 300 0 
719 1 1 0.0158592 0.0351608 0.00397933 0 0 0 0.000108731 0.00206988 -0.000847991 -0.000534082 0.00631974 0.00654469 -0.216965 0.418149 0.14937 0.004 300 0 
21 1 1 0.0235421 0.0395512 0.00391145 0 0 0 -0.00754062 0.00294447 -0.000118372 -0.00828599 0.0048568 0.00148185 -0.917474 -1.68831 0.13486 0.004 300 0 
325 1 1 -0.0221517 0.0403416 0.00394358 0 0 0 -0.00728385 -0.00655137 -0.00797601 -0.0120924 -0.0109928 -0.014311 0.519954 0.123727 -0.602045 0.004 300 0 
595 1 1 -0.0148639 0.0435783 0.00396312 0 0 0 -0.000274515 -0.00652421 -0.00379307 -0.000650659 0.0135194 0.00820032 1.21627 0.52728 -0.572292 0.004 300 0 
568 1 1 0.0163923 0.0430537 0.00391803 0 0 0 -0.00857579 0.00364089 -0.00187846 -0.00127358 0.00300747 -0.00170101 0.193544 -0.82306 1.67172 0.004 300 0 
387 1 1 -0.00711998 0.0455349 0.00388868 0 0 0 0.000373542 0.000656532 -0.000967606 -0.00612508 -0.00280112 -0.0118454 -0.243752 0.429887 -0.0194541 0.004 300 0 
852 1 1 0.000828495 0.0460548 0.00398732 0 0 0 -0.000705528 -5.75606e-05 -0.000277875 -0.00538593 0.000254959 -0.00638464 -0.374714 -0.0176373 -0.256301 0.004 300 0 
157 1 1 0.00872402 0.045217 0.00390449 0 0 0 -0.00213177 0.000248585 -0.000857247 -0.00378348 0.00377991 -0.00855198 0.0557415 -0.200717 -0.0786346 0.004 300 0 
400 1 1 -0.0245366 -0.038944 0.00975151 0 0 0 -0.00649577 0.00464406 0.00268303 -0.00570152 0.00507709 0.00276425 3.01003 5.58042 -1.35312 0.004 300 0 
606 1 1 -0.00049662 -0.038659 0.00819171 0 0 0 -0.00711866 -0.00697609 -0.00706142 -0.00807153 -0.00158246 0.00574079 0.797786 1.79172 -0.177495 0.004 300 0 
724 1 1 -0.0337752 -0.0313284 0.00985491 0 0 0 0.00136239 -0.000235511 0.00228097 -0.00127864 -0.00620797 0.0018975 1.34934 0.483629 -0.576003 0.004 300 0 
183 1 1 0.0252202 -0.0311843 0.00753521 0 0 0 0.00353778 -0.00773031 -0.00355833 -0.00604621 0.00439926 0.00314819 -1.2916 1.1099 -1.20668 0.004 300 0 
544 1 1 -0.0140738 -0.0253062 0.00860934 0 0 0 -0.00859964 0.00316784 -0.0107228 0.00314627 -0.00737247 0.020032 1.34 0.118293 2.01642 0.004 300 0 
29 1 1 -0.00438438 -0.0264006 0.00891859 0 0 0 -0.00517125 0.000597739 -0.00972303 -0.0084755 -0.0155653 0.0207541 -1.43738 0.0642998 -2.70591 0.004 300 0 
248 1 1 0.00352597 -0.0277517 0.00747112 0 0 0 -0.00736495 -0.0112945 -0.00269056 -0.00422414 0.00309351 -0.000904358 -3.72572 -1.31169 -4.05756 0.004 300 0 
79 1 1 0.0357824 -0.0289654 0.00955152 0 0 0 0.00632836 0.00506323 0.00494371 0.00774645 -0.00017324 -0.00484164 -2.16719 -0.683246 2.21214 0.004 300 0 
291 1 1 -0.00451137 -0.0172806 0.0089592 0 0 0 -0.000823022 -0.0104567 0.000883414 -0.00245241 0.00410665 -0.000179974 -4.0208 4.33648 3.24514 0.004 300 0 
891 1 1 0.00375804 -0.0155295 0.00640102 0 0 0 -0.00466228 0.00319243 -0.0127008 0.00695883 0.00272854 -0.00214851 -1.25744 3.79831 1.53604 0.004 300 0 
870 1 1 0.0142137 -0.0152702 0.00848544 0 0 0 -0.00686051 -0.00520033 -0.00863017 0.000438659 -0.00795115 0.00245564 0.702603 -2.26515 0.516039 0.004 300 0 
777 1 1 0.0345333 -0.0194967 0.00819772 0 0 0 -0.0022859 0.0139746 -0.00167405 -0.00292348 -0.000709822 -0.00664813 3.17639 -0.144798 3.5812 0.004 300 0 
837 1 1 -0.0295638 -0.0146735 0.00782953 0 0 0 -0.0148618 0.0095999 -0.0174051 -0.00338587 0.0105262 -0.0113449 4.91025 5.22133 -5.36799 0.004 300 0 
445 1 1 -0.0180431 -0.0140285 0.00984243 0 0 0 0.0116717 0.0128454 -0.0109234 0.0160298 -0.00770289 -0.024371 0.111843 3.07319 2.183 0.004 300 0 
615 1 1 -0.0351717 -0.000900082 0.00946014 0 0 0 0.0031209 0.0171465 0.00950449 -0.00925572 -0.0114864 -0.00442287 5.10792 3.88227 2.25768 0.004 300 0 
476 1 1 -0.0459601 0.00246321 0.00978529 0 0 0 0.00313828 0.0167972 -0.00303949 -0.0100553 0.00946917 0.0105199 -2.67262 -1.12136 -0.00292366 0.004 300 0 
16 1 1 -0.021074 0.00164936 0.00834377 0 0 0 0.0195109 0.021121 -0.0250035 -0.00923672 0.00699358 0.000986244 9.7291 6.06973 -0.41545 0.004 300 0 
704 1 1 -0.0107739 0.00494898 0.00720153 0 0 0 -0.0246956 0.0565815 0.0235028 0.0107011 -0.00701649 0.00572883 5.04749 0.177683 -9.53114 0.004 300 0 
303 1 1 0.0459542 0.00343219 0.0096208 0 0 0 -0.00344918 0.00652508 -0.00148059 -0.00694284 0.00153084 -0.0168233 -4.30133 -0.303471 -1.49762 0.004 300 0 
523 1 1 -0.0390814 0.00785237 0.00933399 0 0 0 -0.0011387 0.00952056 0.00724065 0.0144871 0.000730149 0.00316711 2.94881 2.17019 -4.35458 0.004 300 0 
454 1 1 0.00112924 0.00709633 0.00925131 0 0 0 -0.00329864 -0.00558883 0.00211506 -0.000125798 0.0225156 0.0064944 -1.18194 -0.0476985 1.45116 0.004 300 0 
31 1 1 0.0105071 0.00562101 0.0084319 0 0 0 -0.00369002 -0.0107198 -0.0157509 -0.00539815 0.00423276 0.0035902 -1.36414 -0.0670223 2.50592 0.004 300 0 
135 1 1 0.0188116 0.00752939 0.00969699 0 0 0 0.00804532 -0.00255464 -0.00262695 -0.00189705 0.00179677 -0.00372553 -2.30584 -1.45361 1.76548 0.004 300 0 
712 1 1 0.0280888 0.00760719 0.00979671 0 0 0 0.0118669 -0.000168005 0.0156516 -0.000846239 0.00213819 0.00119939 1.36686 -7.11547 -3.98176 0.004 300 0 
210 1 1 0.0394684 0.00803183 0.00991023 0 0 0 -0.00710243 0.00180678 0.00395409 -0.00377868 -0.000959454 0.000727189 -1.63488 -0.834311 -2.95759 0.004 300 0 
651 1 1 -0.0438355 0.0142032 0.00850888 0 0 0 0.00933625 0.0260491 0.000383337 0.00126852 -0.012133 0.00914837 3.04596 -2.07546 5.70416 0.004 300 0 
43 1 1 -0.00538099 0.0132234 0.00988641 0 0 0 0.0286758 -0.0130174 0.00738234 -0.0129586 0.000288884 -0.00166691 3.49301 1.75298 6.74893 0.004 300 0 
621 1 1 0.043785 0.0146203 0.00906729 0 0 0 9.53839e-05 -0.00380575 -0.00111053 0.00344606 -0.00326912 0.00721485 -1.45806 -0.927074 0.649518 0.004 300 0 
726 1 1 -0.0257944 0.0200286 0.00681377 0 0 0 -0.0353021 0.015104 0.014732 -0.0483271 -0.00291945 -0.0265783 -0.0422613 -4.37811 -4.52181 0.004 300 0 
230 1 1 -0.00842942 0.0248098 0.00964134 0 0 0 -0.0047617 -0.0350147 -0.0162731 -0.00946647 -0.000660209 0.0138089 2.90138 -2.14813 7.44536 0.004 300 0 
320 1 1 -0.00180649 0.0203548 0.00976168 0 0 0 0.0153661 -0.00989417 0.00756914 0.00724109 -0.00276287 -0.0261164 -0.269167 0.986912 -0.584485 0.004 300 0 
7 1 1 0.0129462 0.0223229 0.00919361 0 0 0 -0.00575733 0.0074038 -0.00476261 0.00720431 0.00673425 0.0131163 -2.02547 -0.243109 -2.662 0.004 300 0 
83 1 1 0.0214682 0.0239964 0.00879192 0 0 0 0.00324498 0.00783639 0.00347798 -0.000541268 -0.00724979 -0.00199722 -2.27782 1.58335 1.65759 0.004 300 0 
747 1 1 -0.0337002 0.0314351 0.00935745 0 0 0 0.00362859 0.00884782 0.0105126 0.000960373 0.000328092 0.000947106 4.13503 2.64166 0.176666 0.004 300 0 
51 1 1 -0.0224902 0.0330195 0.00709001 0 0 0 -0.0118098 -0.0180685 -0.00264397 -0.0431809 -0.00347743 0.00748497 0.0889614 -3.01519 1.35414 0.004 300 0 
116 1 1 -0.00956025 0.039217 0.00796502 0 0 0 0.0065873 0.000444218 0.00115128 0.00482383 -0.0016395 -0.00510813 0.478227 -1.53708 -1.56207 0.004 300 0 
205 1 1 -0.000416646 -0.0460677 0.0109661 0 0 0 -0.00470902 -0.00192369 -0.00533035 -0.00673234 -0.0057745 0.00727231 -1.91822 -1.21812 1.15822 0.004 300 0 
836 1 1 0.00751604 -0.0454285 0.0106944 0 0 0 -0.00160174 -0.00299005 0.00354235 -0.00577617 0.000791416 0.00538193 -1.4636 0.645624 0.713782 0.004 300 0 
486 1 1 -0.0154999 -0.0403886 0.0102606 0 0 0 -0.0233945 0.0180959 0.00768357 -0.00848 -0.00395297 0.0107761 3.53421 0.213551 3.22689 0.004 300 0 
311 1 1 -0.00818572 -0.0442765 0.010663 0 0 0 -0.0134762 -0.022748 -3.33187e-05 -0.0099466 -0.000842796 0.0173729 1.30036 1.74913 1.83657 0.004 300 0 
447 1 1 0.0177019 -0.0425849 0.011722 0 0 0 0.00161111 -0.00187222 -0.00175778 0.00117734 0.00478209 0.0105383 1.15042 -4.28507 -0.557172 0.004 300 0 
538 1 1 -0.029377 -0.0355021 0.014958 0 0 0 0.00299636 0.000175199 0.0137915 -0.00491496 0.00268172 0.00453665 -0.695535 -2.34472 0.17283 0.004 300 0 
279 1 1 0.0110682 -0.0383969 0.0116919 0 0 0 0.000607202 -0.000943236 -0.0483576 -0.00456382 0.010934 0.0172038 -1.41841 0.0191876 0.857786 0.004 300 0 
110 1 1 0.0246725 -0.0389066 0.0116822 0 0 0 0.0016328 -0.00301477 0.00416012 0.0118806 0.00106559 0.00350901 -1.47562 2.40954 0.404928 0.004 300 0 
188 1 1 -0.0177998 -0.032175 0.010164 0 0 0 -0.0163753 0.000525612 0.00692366 0.0103669 0.00030315 0.0107503 -1.30536 1.45987 -0.988636 0.004 300 0 
810 1 1 -0.0102008 -0.0344882 0.0101535 0 0 0 -0.0142737 0.011205 0.00305254 0.000461946 -0.0162603 0.0133864 -1.03651 3.19678 -4.02565 0.004 300 0 
412 1 1 -0.00311281 -0.0329475 0.013185 0 0 0 -0.0121474 -0.00171692 0.00447742 0.00164741 0.00868456 0.0209552 0.196423 -1.8832 -0.491246 0.004 300 0 
545 1 1 0.00459156 -0.0340154 0.0122046 0 0 0 -0.0076974 -0.0109162 0.00678888 -0.0097933 0.0118108 -0.010987 12.4541 2.58406 -0.679234 0.004 300 0 
100 1 1 0.011536 -0.0302201 0.0117172 0 0 0 -0.000929069 -0.0116307 0.00328021 0.0108942 -0.0158039 -0.00781096 -0.595658 4.45594 1.16223 0.004 300 0 
556 1 1 0.0180442 -0.0346544 0.0108489 0 0 0 0.00544814 -0.00457666 -0.00143184 0.0175072 -0.00430739 -0.00311818 0.960426 -3.2539 0.235698 0.004 300 0 
32 1 1 0.0308601 -0.0341878 0.0127398 0 0 0 0.00327967 0.000615114 0.00225408 0.0178067 0.00255694 0.00887378 1.25519 -1.97471 -0.319844 0.004 300 0 
5 1 1 -0.0385551 -0.0252135 0.011383 0 0 0 0.00436679 0.000338382 0.0033332 0.00310424 0.0112454 0.0126434 2.12279 0.642326 -0.504774 0.004 300 0 
415 1 1 -0.0252512 -0.0293821 0.0104409 0 0 0 -0.00517658 0.0115028 0.0174338 0.00160827 -0.0327801 -0.0105021 -2.25234 0.554454 0.474693 0.004 300 0 
446 1 1 -0.00967229 -0.0280081 0.0146439 0 0 0 0.00132573 0.0100722 -0.00668882 -0.0136623 -0.0332432 0.0372685 -1.65858 1.09476 1.69382 0.004 300 0 
814 1 1 0.0189474 -0.0262906 0.010369 0 0 0 0.00729926 -0.00906225 -0.0041899 0.00733829 0.00199597 0.00653973 0.6701 0.630765 0.255744 0.004 300 0 
24 1 1 0.0289012 -0.025427 0.0114466 0 0 0 0.00411357 -0.0135691 -0.00202554 0.00413316 0.00882403 0.00654886 1.08733 -3.81371 -1.84213 0.004 300 0 
266 1 1 -0.0292462 -0.0224994 0.0104243 0 0 0 -0.00620258 -0.00639633 -0.0088299 -0.000347839 0.00136904 0.0136104 1.75786 3.33606 -1.45426 0.004 300 0 
487 1 1 -0.0209072 -0.0216144 0.0103433 0 0 0 0.00427758 0.0264478 -0.0107443 -0.0143204 -0.00638942 -0.000221889 -0.614494 3.86769 1.44647 0.004 300 0 
655 1 1 0.00185183 -0.0211929 0.0115849 0 0 0 0.0114728 0.00104438 -0.0114871 -0.00472813 0.00738446 -0.00596539 1.46768 1.7347 -0.209338 0.004 300 0 
243 1 1 0.011359 -0.0223272 0.0108773 0 0 0 0.00428719 -0.0115029 -0.00997934 0.00360735 -0.00019347 0.00630873 -2.85314 0.172358 -2.33013 0.004 300 0 
528 1 1 0.0399625 -0.0230133 0.0126379 0 0 0 0.00747875 0.0179835 -0.0126808 -0.0114556 -0.00358259 0.00740303 -2.40926 2.58818 -1.45634 0.004 300 0 
356 1 1 -0.0361461 -0.0176843 0.0109354 0 0 0 -0.00124227 0.00274487 0.00886989 -0.00656653 0.00777998 -0.0128232 -3.84947 0.543834 4.78172 0.004 300 0 
112 1 1 -0.0258576 -0.0159773 0.0145953 0 0 0 0.0217534 -0.0210563 -0.0368383 0.00469849 0.0155342 0.0247077 -0.145807 3.41574 -0.799155 0.004 300 0 
739 1 1 -0.0117848 -0.0184454 0.0117812 0 0 0 -0.00354886 -0.00216175 -0.000359962 0.00679273 -0.00376712 0.0127272 1.80566 -6.91109 -6.18204 0.004 300 0 
30 1 1 0.00814674 -0.0155408 0.0134877 0 0 0 -0.00482419 -0.00622711 -0.018587 -0.000330567 0.0108156 -0.0066362 0.624056 1.17052 -0.778242 0.004 300 0 
309 1 1 0.0234881 -0.0197767 0.0104359 0 0 0 0.0103598 -0.00336474 -0.00177128 0.00207529 0.000444743 0.0159711 -0.156542 3.86564 -0.430108 0.004 300 0 
418 1 1 0.0432569 -0.0158195 0.0116216 0 0 0 0.00893221 0.0244956 0.00387103 -0.00224248 -0.0046074 -0.00896877 -2.78639 2.4799 -5.09232 0.004 300 0 
673 1 1 -0.0435639 -0.0149793 0.0104026 0 0 0 9.32019e-06 0.00458859 0.00399482 0.00100121 0.00774263 0.013521 0.127889 0.861804 -2.11921 0.004 300 0 
775 1 1 -0.0111066 -0.0100879 0.01065 0 0 0 -0.0119539 0.0278832 -0.0303753 -0.0485271 0.0142396 0.0366195 -5.67435 2.79454 -2.88329 0.004 300 0 
64 1 1 0.000479015 -0.0137079 0.0140152 0 0 0 -0.000920468 0.0147093 -0.0195371 -0.00367071 0.00829991 0.00276041 0.465256 2.16954 3.73421 0.004 300 0 
332 1 1 0.02156 -0.0120559 0.0100669 0 0 0 -0.00309145 -0.00657578 0.00521178 0.00270956 0.00140037 -0.00726071 2.05219 -1.81499 0.929527 0.004 300 0 
374 1 1 0.029224 -0.0141323 0.0107909 0 0 0 0.008545 0.0283816 -0.0101208 0.0147609 0.0094532 0.00230384 -3.937 4.22187 2.32732 0.004 300 0 
388 1 1 -0.0350501 -0.00943562 0.0103068 0 0 0 -0.00853081 0.0142498 -0.00649259 -0.0139497 0.00797276 -0.00972628 0.975319 -0.895675 3.32973 0.004 300 0 
437 1 1 -0.0241596 -0.00910387 0.0109604 0 0 0 0.0122776 0.00886338 -0.0087055 0.0161845 0.000992322 -0.00731892 -2.53978 -0.872699 -0.236524 0.004 300 0 
73 1 1 -0.00349287 -0.00774782 0.0106254 0 0 0 -0.0126556 0.0118439 -0.0183841 0.013252 0.00541269 0.00863461 -7.16616 -0.829829 -13.0035 0.004 300 0 
783 1 1 0.00512768 -0.00867005 0.00999325 0 0 0 0.00381469 0.00404375 -0.0143829 0.00398495 0.00693852 0.00528384 0.731457 -2.48832 -3.00568 0.004 300 0 
194 1 1 0.0130612 -0.00729614 0.0100992 0 0 0 -0.00372642 0.00443069 0.000878168 0.017912 0.00742338 0.0115053 0.962125 -2.47103 0.195982 0.004 300 0 