ITEM: TIMESTEP
18400
ITEM: NUMBER OF ATOMS
891
ITEM: BOX BOUNDS mm mm mm
-0.05 0.05
-0.05 0.05
0 0.15
ITEM: ATOMS id type type x y z ix iy iz vx vy vz fx fy fz omegax omegay omegaz radius f_Temp[0] f_heatFlux[0] 
199 1 1 -0.00444369 -0.0458159 0.00397439 0 0 0 -1.1958e-05 -5.53134e-05 6.76051e-06 -6.89796e-05 7.95378e-05 -0.000106093 0.0136127 0.00559594 0.0171931 0.004 300 0 
873 1 1 -0.0201484 -0.041479 0.00390172 0 0 0 2.13262e-05 -1.29774e-06 -1.08746e-05 -5.19412e-05 2.55119e-05 -4.20856e-05 -0.000272151 0.00783009 -0.00269197 0.004 300 0 
485 1 1 -0.0126796 -0.0442534 0.00397271 0 0 0 1.93536e-05 1.35552e-05 -2.55244e-05 -5.95815e-05 4.59901e-05 -7.37755e-05 -0.00504242 0.00849892 0.00701283 0.004 300 0 
850 1 1 0.00335638 -0.0441758 0.00394103 0 0 0 -3.33628e-05 -7.16902e-06 7.44618e-05 -2.31372e-05 -7.17701e-05 1.78438e-05 0.00403634 -0.0115887 -0.0143951 0.004 300 0 
186 1 1 0.0114402 -0.0445988 0.00392826 0 0 0 -3.28668e-05 -1.50129e-05 -1.87845e-05 -1.34865e-05 -9.92535e-06 2.80078e-05 0.00187648 -0.0154625 0.000259786 0.004 300 0 
560 1 1 0.018969 -0.0420006 0.00394679 0 0 0 1.04293e-05 -9.59547e-06 5.61493e-06 -1.10025e-05 2.80358e-05 -5.20515e-06 -0.00391028 0.00751397 -0.000152102 0.004 300 0 
102 1 1 -0.0147502 -0.0357331 0.0038633 0 0 0 2.67779e-05 4.06595e-06 -2.93677e-05 -3.68114e-05 -1.38479e-05 -3.11523e-05 -0.000224332 0.00222419 0.00222658 0.004 300 0 
88 1 1 -0.00730761 -0.0383837 0.00392742 0 0 0 7.16041e-06 -2.07828e-05 -1.22697e-05 -2.48427e-05 1.3624e-05 -0.000129956 -0.00225845 -0.00633878 -0.0148657 0.004 300 0 
776 1 1 0.00520393 -0.0354369 0.00395018 0 0 0 -8.75012e-06 -2.33613e-05 3.94136e-05 2.66913e-05 3.90262e-05 -2.46264e-05 -0.00615174 0.00794372 -0.0109975 0.004 300 0 
410 1 1 0.0130237 -0.0368131 0.00392575 0 0 0 3.97026e-06 -3.29072e-05 3.66399e-06 6.95781e-06 1.82457e-06 -1.47308e-05 0.00129285 0.00177449 -0.000336935 0.004 300 0 
282 1 1 0.025876 -0.0381319 0.00388548 0 0 0 5.48388e-06 -3.22182e-05 -1.3221e-05 7.9892e-06 8.25741e-05 -4.8197e-05 -0.00236179 -0.000154229 -0.00139588 0.004 300 0 
682 1 1 -0.0302015 -0.034878 0.00393478 0 0 0 -4.3794e-06 2.55447e-06 -1.05366e-05 1.11481e-05 -5.13379e-06 1.90122e-06 -0.00414444 -0.00444724 -0.00116687 0.004 300 0 
251 1 1 -0.0224188 -0.0338475 0.0039238 0 0 0 4.45753e-06 -8.41979e-06 -2.43585e-05 -1.28887e-05 7.11327e-07 -1.13885e-05 -0.00276704 0.00636204 0.00318905 0.004 300 0 
770 1 1 -0.00204746 -0.0321408 0.00393968 0 0 0 -2.87024e-05 -8.26897e-06 -1.03728e-05 1.53897e-05 1.45783e-05 -0.000145077 -0.00951947 -0.00597987 0.0028059 0.004 300 0 
883 1 1 0.0181661 -0.0307534 0.00390054 0 0 0 8.38113e-07 -5.70832e-05 1.27757e-05 -3.30999e-08 7.28056e-05 -0.000202153 0.0148622 0.00202261 -0.00197344 0.004 300 0 
838 1 1 0.0320336 -0.0331089 0.00396114 0 0 0 -1.61181e-06 -4.92953e-05 -1.1983e-05 8.31422e-06 7.16146e-06 -3.13115e-05 0.00193899 -0.000197212 0.00620462 0.004 300 0 
617 1 1 -0.0372519 -0.0271216 0.00391657 0 0 0 -9.23235e-06 9.52194e-06 -3.60344e-06 8.7147e-06 -1.82101e-05 3.96806e-06 0.000378828 -0.000903395 0.000396627 0.004 300 0 
824 1 1 -0.0292996 -0.02703 0.00393005 0 0 0 -9.94833e-06 2.91142e-05 -2.89998e-05 2.54229e-05 -2.14175e-05 2.32846e-05 -0.000821927 0.00454995 0.00309654 0.004 300 0 
571 1 1 -0.0202613 -0.0262213 0.00393314 0 0 0 -2.77839e-05 7.09089e-06 -6.22936e-05 -1.73476e-05 -1.2968e-05 9.28602e-06 -0.00219068 0.000618841 -0.00265064 0.004 300 0 
861 1 1 -0.00959297 -0.0297304 0.00389701 0 0 0 1.2905e-05 -1.54115e-05 -2.48273e-05 -4.18077e-05 -8.23005e-06 -2.10117e-05 -0.0012464 -0.00109816 0.000206649 0.004 300 0 
434 1 1 0.0103456 -0.0293807 0.00393746 0 0 0 -2.29597e-05 -6.87877e-05 2.02547e-05 3.45935e-05 1.59634e-05 -0.000120514 0.00245128 -0.00549369 0.0128861 0.004 300 0 
103 1 1 0.0311548 -0.0252347 0.003944 0 0 0 -4.99374e-05 -9.85312e-05 -7.39318e-06 2.21474e-05 -4.30723e-05 -4.48387e-05 0.0147467 0.00463501 0.00736442 0.004 300 0 
769 1 1 -0.041344 -0.0202818 0.00398236 0 0 0 -7.38756e-06 1.2303e-05 9.76642e-07 -1.43895e-05 3.06854e-06 -5.02674e-06 -0.000748161 -0.00139412 0.00218979 0.004 300 0 
94 1 1 -0.0333713 -0.0202165 0.00394383 0 0 0 -9.16796e-06 2.5187e-05 -1.42029e-05 -1.5495e-05 -2.55708e-05 7.30642e-06 -0.00197212 0.00598899 4.15387e-05 0.004 300 0 
40 1 1 -0.0254009 -0.0201463 0.00391773 0 0 0 -1.6959e-05 4.47266e-05 -4.64085e-05 -1.58133e-05 -2.52555e-05 -2.40862e-05 0.000152218 0.0033677 0.00166592 0.004 300 0 
19 1 1 -0.0086509 -0.0218803 0.00393966 0 0 0 3.61302e-05 -2.72958e-05 -2.26645e-05 -3.80651e-05 1.21919e-05 -3.2299e-05 0.00614082 0.00418383 -0.00868892 0.004 300 0 
442 1 1 -0.000437041 -0.0218498 0.00393559 0 0 0 1.25517e-05 -4.94647e-05 -2.66795e-06 -7.93724e-05 3.79901e-05 -7.72232e-06 0.0116584 0.00839701 -9.8338e-05 0.004 300 0 
259 1 1 0.00753192 -0.0219999 0.00392511 0 0 0 -3.81682e-05 -0.000103867 4.35885e-05 -1.86555e-05 -2.51587e-05 -0.000128529 0.0261923 -0.0191743 -0.00984083 0.004 300 0 
512 1 1 0.0153884 -0.0232355 0.00397853 0 0 0 -1.94864e-05 -9.90344e-05 1.86561e-05 2.36027e-05 7.45937e-05 -0.00015843 0.007543 0.0133498 -0.00707378 0.004 300 0 
470 1 1 0.0232616 -0.024359 0.0039085 0 0 0 -2.57155e-05 -0.000114507 2.49362e-05 6.72488e-05 9.77798e-05 -0.000144337 0.00925851 -0.00780236 0.00219526 0.004 300 0 
451 1 1 0.0390292 -0.0244873 0.00392066 0 0 0 -2.72334e-05 -3.71901e-05 -6.02365e-06 -3.06306e-05 -6.08494e-05 -7.31482e-06 0.0110169 -0.00569625 0.0107626 0.004 300 0 
531 1 1 -0.0164595 -0.0192002 0.00396134 0 0 0 7.23777e-06 -3.99526e-06 -2.88506e-05 5.04324e-05 -7.76658e-05 3.80189e-05 0.00776684 -0.00891226 -0.00313297 0.004 300 0 
229 1 1 0.0202063 -0.0169135 0.00386891 0 0 0 4.43092e-06 -0.000107697 -7.00649e-06 4.12161e-06 1.85583e-05 -9.67924e-05 0.0170358 0.00664619 0.00733822 0.004 300 0 
734 1 1 0.0280529 -0.017942 0.00394415 0 0 0 -3.32959e-05 -0.000118669 1.48496e-05 -5.43896e-05 -3.94508e-05 -7.15871e-05 0.0149573 -0.017467 -0.00974572 0.004 300 0 
635 1 1 0.042598 -0.0174493 0.003922 0 0 0 -2.00336e-05 -1.4202e-06 -2.67805e-06 -5.88324e-05 -6.71327e-05 9.17042e-07 -0.0029395 -0.00289747 -0.00344558 0.004 300 0 
87 1 1 -0.0448221 -0.0104645 0.00391425 0 0 0 -7.15443e-06 7.37779e-06 -4.04044e-06 -2.56694e-05 2.08427e-05 -1.36372e-06 -0.000330188 -0.000757953 -0.000957526 0.004 300 0 
406 1 1 -0.0373948 -0.0133912 0.00396033 0 0 0 -2.42922e-05 3.66926e-05 -5.78772e-06 -3.74119e-05 1.48259e-05 -1.86532e-05 -0.0063036 -0.00661849 0.00440577 0.004 300 0 
224 1 1 -0.0230579 -0.012602 0.00387972 0 0 0 -3.31122e-05 9.07833e-05 -4.10964e-05 1.19759e-05 -5.20227e-05 -6.89829e-05 -0.0135697 -0.00972153 -0.00241659 0.004 300 0 
751 1 1 -0.0102998 -0.0141545 0.00396942 0 0 0 5.38327e-05 1.65144e-06 1.86414e-06 3.69483e-05 -2.49165e-06 -5.18424e-05 -0.0029242 0.011829 -0.00104533 0.004 300 0 
622 1 1 -0.00273393 -0.0117408 0.00388521 0 0 0 6.2625e-05 -1.53531e-05 -3.76817e-05 -4.14634e-05 2.72085e-05 -2.678e-05 0.00436691 0.00763817 0.00166184 0.004 300 0 
128 1 1 0.00951085 -0.0106849 0.00388451 0 0 0 6.14235e-05 -3.34444e-05 -1.33405e-05 -2.02657e-05 1.40177e-05 -3.08522e-05 -0.00261073 0.0118709 0.0253817 0.004 300 0 
68 1 1 0.0262816 -0.0102108 0.00395427 0 0 0 -2.12145e-05 -8.92056e-05 -1.30432e-05 1.87713e-05 -3.74278e-05 -8.3946e-05 0.00140381 -0.00943083 0.0072654 0.004 300 0 
791 1 1 0.0340945 -0.0118577 0.003928 0 0 0 -3.35246e-07 -0.000108955 -4.53909e-05 -0.000111001 -0.000147899 4.39301e-05 0.0180619 0.00372116 -0.0188308 0.004 300 0 
354 1 1 -0.038075 -0.00550416 0.0039205 0 0 0 1.49825e-05 3.48777e-05 -7.88624e-06 2.80633e-05 3.26303e-05 -8.62211e-06 -0.00173676 0.00514492 -0.00644393 0.004 300 0 
725 1 1 -0.03049 -0.00800535 0.00392524 0 0 0 -1.66211e-05 2.50072e-05 -2.01168e-05 2.65175e-05 -4.89305e-05 1.01114e-05 0.00645687 -0.00396988 -0.0173955 0.004 300 0 
353 1 1 -0.0161288 -0.00879806 0.0039115 0 0 0 3.13318e-05 4.79354e-05 -2.00183e-05 4.21148e-05 -3.56034e-05 -2.88651e-05 -0.0150981 -0.00123251 -0.00983107 0.004 300 0 
391 1 1 -0.00857668 -0.0063974 0.00391358 0 0 0 6.17932e-05 5.74353e-06 -1.53375e-05 -1.13006e-05 2.43295e-05 -1.40116e-05 -0.00324711 0.00550041 -0.004202 0.004 300 0 
683 1 1 0.0173536 -0.00945627 0.00391004 0 0 0 1.64958e-05 -4.94027e-05 -2.21525e-05 -1.95915e-05 -4.51472e-05 -5.56044e-05 0.00967054 -0.00753722 -0.0209701 0.004 300 0 
690 1 1 0.0385535 -0.00520207 0.00390021 0 0 0 -5.64676e-06 -2.71762e-05 -1.74928e-05 -1.10253e-05 -0.000133946 -1.23304e-05 0.0080057 0.00144965 0.0249869 0.004 300 0 
10 1 1 0.0449636 -0.00990877 0.00397395 0 0 0 1.32339e-05 8.17327e-06 -2.07151e-05 -2.86803e-05 -2.58099e-05 -2.10594e-05 0.00153744 -0.00429787 -0.00551399 0.004 300 0 
402 1 1 -0.0460168 -0.00264226 0.00392186 0 0 0 9.0433e-06 8.26723e-06 6.21614e-07 1.83702e-05 2.46071e-05 -8.77145e-06 -0.00114157 0.00138016 -0.000689924 0.004 300 0 
761 1 1 -0.0294744 -0.000168408 0.00392578 0 0 0 4.51961e-05 4.41777e-05 1.50105e-05 5.30817e-05 -2.20982e-05 -3.26911e-05 -0.00418177 0.00828665 0.00543685 0.004 300 0 
293 1 1 -0.0229324 -0.00466879 0.00395967 0 0 0 3.71346e-05 7.53473e-05 -1.72086e-05 5.93322e-05 -3.59719e-05 -2.43561e-05 0.000775339 0.00715053 -0.00416464 0.004 300 0 
384 1 1 -0.0146507 -0.000928623 0.0039815 0 0 0 -0.000883551 0.00068613 4.84536e-06 5.29067e-08 2.86449e-07 -7.91636e-06 -0.171862 -0.221397 0.233621 0.004 300 0 
378 1 1 0.00130609 -0.0049039 0.00392906 0 0 0 7.83443e-05 -7.70354e-07 -3.54198e-05 -1.21562e-05 -3.2157e-05 -1.6638e-05 0.00425911 0.0131775 -0.000616139 0.004 300 0 
390 1 1 0.0103708 -0.00276518 0.00396879 0 0 0 1.72015e-05 1.54144e-06 -3.92905e-05 -3.12363e-05 2.92143e-05 -4.77229e-05 -0.000354139 0.00531485 -0.0094236 0.004 300 0 
411 1 1 0.0223607 -0.00329285 0.00397614 0 0 0 7.85443e-05 -6.32624e-05 1.74779e-06 -1.09585e-05 -5.38716e-05 -5.52167e-05 0.00503821 0.0123141 -0.014714 0.004 300 0 
342 1 1 0.0307349 -0.00361646 0.00397489 0 0 0 -5.06305e-05 -4.6563e-05 -5.29985e-06 2.89422e-05 -0.000135413 -5.84363e-05 0.000745599 -0.0040415 0.00114694 0.004 300 0 
262 1 1 0.0460221 -0.00206501 0.00395829 0 0 0 1.96033e-05 7.46123e-06 -7.46564e-07 1.75122e-05 1.56259e-05 -6.12037e-05 0.00069123 0.00146354 -0.000407024 0.004 300 0 
261 1 1 -0.0398215 0.00224582 0.00393483 0 0 0 1.81258e-05 1.23942e-05 2.12345e-06 5.58043e-05 2.23106e-05 -3.44182e-06 0.00115643 0.00308567 0.00360364 0.004 300 0 
666 1 1 -0.0045469 0.000451506 0.00395606 0 0 0 7.81016e-05 1.70245e-05 -4.06718e-05 5.0548e-05 1.25257e-05 -8.70333e-06 -0.00503569 0.00937852 0.0049123 0.004 300 0 
815 1 1 0.00434363 0.00243572 0.00392713 0 0 0 5.20714e-05 2.71179e-05 -4.38528e-05 2.31378e-05 -4.51884e-05 1.55194e-05 -0.00851374 0.00922112 0.00153837 0.004 300 0 
306 1 1 0.01637 0.00247684 0.00395798 0 0 0 6.00637e-05 -4.33187e-05 -2.77886e-05 -1.21548e-05 4.47936e-06 -1.76362e-05 0.00849782 0.0027283 -0.0136993 0.004 300 0 
178 1 1 0.0241043 0.00444189 0.00386102 0 0 0 6.73796e-05 -1.27198e-05 9.92412e-06 -3.90919e-05 -5.31831e-05 -7.75721e-06 0.00451003 0.0151749 0.0249098 0.004 300 0 
862 1 1 0.0320657 0.00423378 0.00393093 0 0 0 2.37256e-05 -5.13188e-06 -6.05616e-06 -1.26655e-05 -0.000147949 4.93833e-05 -0.000172079 0.000206245 -0.026837 0.004 300 0 
661 1 1 0.0398755 0.00291474 0.00394678 0 0 0 1.3273e-06 -2.21172e-05 2.20037e-06 8.9896e-06 -4.66982e-05 -4.05342e-05 0.000237183 -0.00225951 0.0162592 0.004 300 0 
677 1 1 -0.0453782 0.00788531 0.00393643 0 0 0 -5.23693e-06 -7.75533e-07 -1.94245e-06 7.51338e-07 6.19588e-06 -1.78153e-05 -0.0052807 -0.00050857 0.00179388 0.004 300 0 
12 1 1 -0.0333161 0.00671949 0.00393708 0 0 0 5.32689e-06 2.34972e-05 -3.01464e-07 5.72943e-05 -9.88905e-06 -2.70189e-05 -0.00671323 -0.00116659 0.0048179 0.004 300 0 
420 1 1 -0.0254001 0.0066483 0.00392706 0 0 0 1.0124e-05 5.78712e-05 2.15795e-05 6.22706e-05 -2.32936e-05 -4.16255e-05 -0.00747739 -0.0044039 0.00764451 0.004 300 0 
654 1 1 -0.0175136 0.00720946 0.00387234 0 0 0 3.30662e-05 4.4242e-05 -1.09362e-05 8.07474e-05 -1.31583e-05 -3.39844e-05 -0.00678226 0.0106899 -0.0101864 0.004 300 0 
145 1 1 -0.00454425 0.00836544 0.00386316 0 0 0 4.16333e-05 3.22048e-05 -4.14459e-05 7.36095e-05 -1.4932e-05 -3.43003e-05 0.00202751 -1.56736e-05 -0.00130257 0.004 300 0 
624 1 1 0.0451449 0.00890655 0.00390659 0 0 0 -1.01923e-05 3.66692e-06 -1.57871e-06 -4.69855e-05 1.8247e-06 1.04588e-05 -3.13556e-05 -0.00131261 -0.00195281 0.004 300 0 
613 1 1 -0.0372991 0.0135338 0.0038435 0 0 0 -1.34393e-05 -1.1736e-05 -1.41216e-05 2.39196e-05 -2.46546e-05 -3.04101e-05 0.00474297 -0.00456899 -0.000293693 0.004 300 0 
265 1 1 -0.0293063 0.0135429 0.00396378 0 0 0 -8.59933e-06 1.44192e-05 -2.89955e-05 3.33634e-05 -4.40986e-05 -2.34476e-05 -0.00537342 -0.000253349 -0.000987747 0.004 300 0 
273 1 1 -0.0213696 0.0141274 0.00392954 0 0 0 4.45591e-06 3.30507e-05 -2.49982e-05 5.49828e-05 -1.58091e-05 -2.72682e-05 -0.00852151 -0.00428648 0.00947163 0.004 300 0 
492 1 1 -0.0114502 0.0123713 0.00398085 0 0 0 1.77253e-05 2.45708e-05 -2.8709e-05 6.84212e-05 -3.82152e-05 2.05617e-05 0.0024357 0.00017005 0.0111211 0.004 300 0 
234 1 1 0.0058527 0.0103931 0.00392897 0 0 0 2.77474e-05 5.26618e-05 -4.19062e-05 7.12492e-05 -5.68956e-05 -4.47689e-05 0.00228126 0.00418368 -0.00464555 0.004 300 0 
160 1 1 0.0142842 0.0106358 0.00390958 0 0 0 1.54192e-05 3.22951e-05 -3.76034e-05 5.902e-05 -9.44145e-05 -2.50449e-05 0.00202085 0.00261337 -0.0184968 0.004 300 0 
484 1 1 0.0220892 0.012074 0.00390117 0 0 0 -2.20727e-05 1.27643e-05 -3.01894e-06 3.09339e-05 -6.64438e-05 -5.75594e-07 -0.00909342 -0.0117665 0.00600756 0.004 300 0 
743 1 1 0.0300184 0.0126216 0.00398127 0 0 0 -6.80064e-06 7.06292e-05 2.57359e-05 1.3263e-05 -1.7996e-05 9.40015e-06 -0.0141078 0.00497061 0.00697074 0.004 300 0 
514 1 1 0.0379537 0.0130188 0.00386895 0 0 0 -1.10694e-05 2.56321e-05 7.9627e-06 1.339e-06 -5.29426e-05 1.69406e-05 -0.00457862 -0.00293259 -0.0140571 0.004 300 0 
530 1 1 -0.0159003 0.0198648 0.003928 0 0 0 1.10068e-05 1.36053e-05 -3.18825e-05 5.44974e-05 -4.14662e-06 -1.82717e-05 -0.00384312 0.00333808 -0.010983 0.004 300 0 
227 1 1 -0.00736512 0.0192084 0.00396601 0 0 0 -1.99934e-05 5.33147e-05 -1.52514e-05 1.44355e-05 3.71055e-05 2.54139e-05 -0.00731029 -0.00554659 -0.0020395 0.004 300 0 
392 1 1 -0.000498784 0.0151514 0.00394448 0 0 0 1.15179e-05 5.39493e-05 -1.20206e-05 6.83964e-05 -2.31638e-05 -5.88914e-06 -0.00255302 0.000967216 0.00876499 0.004 300 0 
493 1 1 0.00985831 0.0172533 0.00394648 0 0 0 -2.34828e-06 8.86472e-05 -5.07371e-05 5.45868e-05 -4.19968e-05 -2.04344e-05 -0.0160833 0.00150977 0.0138856 0.004 300 0 
34 1 1 0.0176356 0.0187854 0.00394098 0 0 0 -2.34236e-05 0.000104861 -5.84089e-05 4.88068e-05 -8.58587e-05 -1.20392e-05 -0.0263969 -0.00701127 -0.0131628 0.004 300 0 
206 1 1 0.0255397 0.0192354 0.00396992 0 0 0 -2.38268e-05 5.30362e-05 -1.61395e-05 2.3813e-05 -5.3548e-05 -8.61907e-06 -0.00939985 -0.00881529 -0.00161245 0.004 300 0 
104 1 1 0.0334175 0.0199348 0.00389647 0 0 0 -3.54806e-06 2.91177e-05 -1.95482e-07 -6.02547e-06 -6.52401e-05 1.30868e-05 -0.00791999 0.00235786 -0.00714149 0.004 300 0 
809 1 1 -0.0412059 0.0204948 0.00395501 0 0 0 -9.45256e-06 -1.31306e-05 -1.33877e-05 -4.42812e-06 -2.45492e-05 2.3551e-06 0.0014876 0.000121872 -0.00101811 0.004 300 0 
773 1 1 -0.0331523 0.020453 0.00393531 0 0 0 -1.16112e-05 -2.66925e-06 -4.17021e-05 -2.01398e-06 -2.92778e-05 -3.15496e-05 0.0116336 -0.00470168 -0.00165029 0.004 300 0 
792 1 1 0.00347666 0.0219736 0.00392104 0 0 0 -1.99084e-05 8.10188e-05 -3.86908e-05 5.00662e-05 -1.65711e-05 -4.02863e-06 -0.00835365 -0.000339446 0.00152051 0.004 300 0 
718 1 1 0.0413199 0.020366 0.00392986 0 0 0 -2.93507e-06 1.63172e-06 3.93623e-06 -1.13654e-05 -2.80095e-05 2.40748e-05 -0.00181793 -0.00185928 0.00121475 0.004 300 0 
101 1 1 -0.0371146 0.0272994 0.00390409 0 0 0 -6.17174e-05 2.21438e-06 -3.60995e-05 -9.05153e-05 3.62496e-05 -0.000102978 -0.00767779 -0.0075704 0.0129093 0.004 300 0 
246 1 1 -0.0290567 0.0272807 0.00398273 0 0 0 2.80405e-05 1.07909e-05 -1.74913e-05 4.24325e-05 2.29189e-05 -1.22561e-05 -0.000537067 0.00868763 -0.00853277 0.004 300 0 
331 1 1 -0.0212282 0.0257798 0.0039002 0 0 0 3.36284e-05 -1.63997e-06 -9.263e-05 4.37917e-05 2.39015e-07 -0.000161159 -0.000941376 -0.00210168 -0.00224929 0.004 300 0 
846 1 1 -0.0134709 0.0274168 0.00397481 0 0 0 2.36087e-05 2.32016e-06 -4.65342e-05 9.40146e-05 -3.31857e-05 -4.09999e-05 0.0057914 -0.000305788 0.00848884 0.004 300 0 
348 1 1 -0.00329929 0.0260612 0.00393376 0 0 0 -1.14195e-05 5.70607e-05 -3.74502e-05 5.60725e-05 5.03308e-06 -9.0267e-06 -0.00166533 -0.00425824 -0.000136821 0.004 300 0 
786 1 1 0.00840344 0.0281551 0.00389683 0 0 0 -2.39985e-05 9.57059e-05 -4.47481e-05 3.11272e-05 -2.06157e-05 -1.49157e-05 -0.0158758 -0.00284052 0.00355037 0.004 300 0 
316 1 1 0.0162832 0.0272929 0.0039063 0 0 0 -3.08183e-05 8.54099e-05 -3.48173e-05 4.15217e-05 -7.71257e-05 -3.33313e-05 -0.0142625 -0.00576817 -0.0118438 0.004 300 0 
495 1 1 0.0288861 0.0264619 0.00396714 0 0 0 -6.89934e-06 4.86097e-05 -2.36508e-05 1.4602e-05 -4.37488e-05 -3.05752e-06 -0.00622608 1.46444e-05 0.00232172 0.004 300 0 
863 1 1 0.0367263 0.0277634 0.00392935 0 0 0 -8.35199e-06 1.9637e-05 -5.97316e-06 2.76668e-06 -3.2027e-05 9.87218e-06 -0.0031853 -0.00301435 -0.00749233 0.004 300 0 
511 1 1 -0.00761849 0.0327132 0.0038855 0 0 0 -2.80946e-05 4.94456e-05 -3.10386e-05 7.2946e-05 7.20383e-06 1.06801e-05 -0.00609351 -0.00303654 0.00701377 0.004 300 0 
722 1 1 0.00164021 0.0322875 0.00396634 0 0 0 -2.73435e-05 6.3378e-05 -3.34994e-05 4.93475e-05 6.29474e-06 -8.92736e-06 -0.00501106 0.00447404 0.00746062 0.004 300 0 
2 1 1 0.0229311 0.031696 0.00396242 0 0 0 -1.22483e-05 4.07892e-05 -2.63641e-05 2.00511e-05 -3.16367e-05 -1.25754e-05 -0.00240457 -0.0041762 -0.00302145 0.004 300 0 
254 1 1 0.0306292 0.0342851 0.0039815 0 0 0 -0.000818636 0.000870502 1.83245e-07 1.61756e-08 6.34502e-08 -3.3955e-06 -0.218144 -0.20513 -0.0703935 0.004 300 0 
257 1 1 -0.0296322 0.0352232 0.00395602 0 0 0 5.05109e-05 5.54408e-05 -9.10916e-05 0.000111256 9.83966e-05 -0.000128153 -0.0220171 0.0294963 0.0124942 0.004 300 0 
582 1 1 -0.0157655 0.0356205 0.00393208 0 0 0 0.000101279 0.000116678 -6.0637e-05 0.0001714 -2.04842e-05 -0.000117746 -0.024385 0.0240029 0.0329911 0.004 300 0 
255 1 1 -0.00267135 0.038932 0.0039115 0 0 0 -3.17158e-05 4.62494e-05 -4.16743e-05 2.86554e-05 9.60869e-06 -1.51624e-05 -0.00796463 -0.00440869 -0.00363195 0.004 300 0 
887 1 1 0.00812076 0.0373183 0.00392888 0 0 0 -1.60911e-05 5.87358e-05 -2.32594e-05 3.48484e-05 -1.39745e-05 5.89759e-06 -0.00985248 -0.00559498 -0.0112297 0.004 300 0 
719 1 1 0.0157852 0.0351951 0.00398362 0 0 0 -8.87893e-06 3.97495e-05 -2.60711e-05 2.72267e-05 -3.44086e-05 3.25895e-06 0.00776798 0.00279197 0.00536426 0.004 300 0 
21 1 1 0.0234243 0.0396338 0.00391497 0 0 0 -6.98262e-06 2.27738e-05 -6.6827e-06 1.25624e-06 -1.0302e-05 -5.50602e-06 -0.00208936 -0.000712151 0.00128466 0.004 300 0 
325 1 1 -0.0222387 0.0402985 0.00393944 0 0 0 4.13332e-05 3.21704e-05 -3.43892e-05 5.4823e-05 4.14122e-06 -3.70552e-05 -0.00452988 0.01213 0.0131675 0.004 300 0 
595 1 1 -0.014931 0.0435392 0.00398257 0 0 0 -1.42465e-05 3.97721e-05 -5.30329e-05 2.603e-05 -2.81271e-06 -1.91791e-05 0.0112662 -0.00241551 -0.00340646 0.004 300 0 
568 1 1 0.0162912 0.0430934 0.00392629 0 0 0 -7.38008e-06 2.18743e-05 -3.39435e-06 7.28076e-06 -8.2063e-06 -9.0024e-06 -0.00246965 -0.000814029 -0.00402581 0.004 300 0 
387 1 1 -0.00719695 0.045487 0.00389936 0 0 0 -1.84861e-05 2.0825e-05 -2.95024e-05 1.59804e-05 1.04987e-05 -1.24138e-05 0.00325068 -0.00340185 -0.00394264 0.004 300 0 
852 1 1 0.000758854 0.0460615 0.00397619 0 0 0 -6.99045e-06 1.10321e-05 -1.91461e-05 1.34709e-05 4.00794e-06 -8.00728e-06 0.00465905 -0.00106899 -0.00144317 0.004 300 0 
157 1 1 0.00865313 0.0452493 0.00389823 0 0 0 4.79978e-06 3.05278e-05 -2.00204e-05 1.34173e-05 1.85478e-06 -2.42654e-06 -0.00260111 -0.000572681 0.00193563 0.004 300 0 
400 1 1 -0.0247518 -0.0387966 0.00974448 0 0 0 1.57624e-05 -2.8648e-05 6.14822e-06 -3.77362e-05 2.15707e-05 -4.82063e-06 0.0079254 -0.013183 -0.000371587 0.004 300 0 
606 1 1 -0.000653817 -0.0387267 0.00813883 0 0 0 -4.59549e-05 1.20839e-05 8.62236e-05 -6.34111e-05 7.16399e-05 -0.000138696 -0.00564189 -0.0218706 0.0133461 0.004 300 0 
724 1 1 -0.0339141 -0.0311599 0.00984812 0 0 0 -1.01683e-05 2.64084e-07 -3.47883e-05 4.50043e-05 -1.26087e-05 1.9483e-05 0.00122079 0.00644599 0.000436791 0.004 300 0 
183 1 1 0.0251947 -0.0311658 0.00751583 0 0 0 -1.81534e-05 -0.000177416 4.21797e-05 -9.84875e-05 0.000117321 -0.000112935 0.0391857 -0.00966912 0.00230394 0.004 300 0 
544 1 1 -0.0140216 -0.0253028 0.00875063 0 0 0 -3.14576e-05 -2.73088e-05 -0.000124746 -2.55623e-05 -3.78686e-05 0.000123012 -0.000781454 -0.002744 -0.00357158 0.004 300 0 
29 1 1 -0.00450642 -0.0263793 0.00900645 0 0 0 3.51509e-05 -4.42189e-05 3.88462e-05 -0.000214082 7.74418e-05 4.34423e-05 -0.0157612 -0.00546161 0.00118236 0.004 300 0 
248 1 1 0.00349926 -0.0278422 0.00763287 0 0 0 -6.93484e-05 -6.58907e-05 -3.15292e-05 -5.49404e-05 -5.38491e-05 -0.000150806 -0.00615416 -0.0198605 -0.0272651 0.004 300 0 
79 1 1 0.0358373 -0.0289484 0.00959718 0 0 0 -2.48328e-06 -4.92366e-05 -2.16993e-06 -9.57512e-06 -0.000163764 -7.11053e-05 -0.0147141 0.00787899 0.00338629 0.004 300 0 
291 1 1 -0.00458889 -0.0173971 0.00909529 0 0 0 3.10389e-05 -4.00398e-05 -4.83729e-05 -5.10909e-05 7.90078e-06 -0.000147144 -0.011047 -0.021133 0.00110112 0.004 300 0 
891 1 1 0.00373486 -0.0155277 0.00632484 0 0 0 4.77385e-05 -5.96455e-05 6.66793e-06 -1.92372e-05 -3.18606e-05 -5.1093e-05 -0.0131298 -0.0169891 -0.0198987 0.004 300 0 
870 1 1 0.0138327 -0.015636 0.00831006 0 0 0 2.35222e-05 -0.000154011 -6.95982e-06 -4.62718e-05 -6.00615e-05 -0.000164167 0.0404078 -0.0252412 -0.0417793 0.004 300 0 
777 1 1 0.0349678 -0.0187804 0.00771535 0 0 0 -3.77327e-05 -0.000102515 1.10101e-05 -0.000141577 -0.000151097 -6.67728e-05 -0.0304737 0.0229893 0.00299003 0.004 300 0 
837 1 1 -0.0294487 -0.0146727 0.00803335 0 0 0 -5.79482e-05 5.711e-05 -7.05187e-05 -1.05227e-05 -8.25258e-05 -2.3866e-05 -0.00420882 -0.00403737 0.016714 0.004 300 0 
445 1 1 -0.0181358 -0.0138503 0.00995305 0 0 0 1.24209e-05 0.000127334 -0.000248714 -3.79582e-06 -0.00014798 -8.50275e-06 0.024569 0.0425526 0.00481352 0.004 300 0 
783 1 1 0.00485912 -0.00860634 0.00993758 0 0 0 0.00010331 -1.70544e-05 -5.04117e-05 -8.05097e-05 -4.87697e-05 -4.50067e-06 -0.0076045 -0.0051696 -0.00461128 0.004 300 0 
615 1 1 -0.0350999 -0.000758942 0.00955199 0 0 0 5.35112e-05 6.67177e-05 3.46289e-06 9.73056e-05 3.33112e-05 -2.56609e-05 -0.00275885 -0.000172279 0.00397724 0.004 300 0 
476 1 1 -0.0459522 0.00262089 0.00988935 0 0 0 -3.71067e-06 1.96545e-06 1.5048e-05 2.21614e-05 2.3849e-05 -1.77266e-05 0.00650608 -0.00376845 0.00328885 0.004 300 0 
16 1 1 -0.0210457 0.00169425 0.00830969 0 0 0 8.1492e-05 0.000112498 1.05632e-05 9.58114e-05 -3.58508e-05 -9.56847e-05 0.00240317 0.0197855 0.00386276 0.004 300 0 
303 1 1 0.0459489 0.0035044 0.00962659 0 0 0 -3.00301e-05 -4.61402e-06 -2.29012e-06 -4.35261e-05 -0.000106019 -7.45139e-06 0.000999093 -0.0068756 0.00189036 0.004 300 0 
523 1 1 -0.0389799 0.00803048 0.00932871 0 0 0 4.53798e-06 -5.11112e-06 -5.16941e-08 9.05859e-05 1.73777e-05 -2.12744e-05 -0.00247209 0.00454028 0.0133002 0.004 300 0 
704 1 1 -0.0107982 0.00519236 0.00743874 0 0 0 9.38185e-05 6.23789e-05 -7.97362e-05 0.000100447 -1.53993e-05 -3.37831e-05 -0.00376583 0.0142905 0.00394973 0.004 300 0 
454 1 1 0.00101158 0.00715944 0.00933967 0 0 0 8.1577e-05 6.26492e-05 -8.15295e-05 9.46027e-05 3.62546e-06 -3.28673e-05 -0.00956466 0.00581132 0.0137059 0.004 300 0 
31 1 1 0.0102164 0.00547616 0.00832594 0 0 0 5.03094e-05 5.2248e-05 -0.000115766 7.21468e-05 -7.08967e-05 8.42831e-06 0.00273302 0.00624364 0.00389291 0.004 300 0 
135 1 1 0.0188887 0.00749204 0.00960766 0 0 0 4.44217e-05 -5.72974e-05 -2.62074e-05 6.84929e-06 -0.000117284 -3.34783e-05 0.00639945 0.00659382 0.0277068 0.004 300 0 
712 1 1 0.028114 0.0074331 0.00998842 0 0 0 2.17606e-05 5.72414e-05 -6.19292e-06 -3.75864e-05 -0.000235494 0.000126455 -0.00180686 -0.014279 0.00472056 0.004 300 0 
210 1 1 0.0394934 0.00814639 0.00989854 0 0 0 -3.89079e-05 -1.05923e-07 1.5826e-05 -8.26112e-05 -0.000125624 -1.28059e-05 0.00182244 0.00616949 -0.00312129 0.004 300 0 
651 1 1 -0.0437988 0.0143397 0.00823572 0 0 0 -4.61774e-06 -2.85599e-05 -3.3129e-05 3.18785e-06 -4.66591e-05 -2.68787e-05 0.00818279 0.00570105 -0.00401074 0.004 300 0 
621 1 1 0.0437182 0.0147846 0.00900759 0 0 0 -1.05708e-05 -1.27162e-06 1.13233e-05 -1.49926e-05 -4.09896e-05 2.40292e-05 0.00235581 0.000523659 -0.00293532 0.004 300 0 
726 1 1 -0.0257657 0.0199971 0.00692837 0 0 0 1.69194e-05 -9.04851e-06 -8.58482e-05 3.34531e-05 -6.12408e-05 -0.000126022 -0.0051264 0.0120191 0.000439091 0.004 300 0 
230 1 1 -0.00847489 0.0245948 0.0097378 0 0 0 1.70526e-05 0.00020074 -7.1492e-05 0.000119444 6.72136e-05 7.75983e-06 -0.036173 0.0129059 -0.0125856 0.004 300 0 
320 1 1 -0.00171289 0.020405 0.00979382 0 0 0 3.67774e-07 0.000168107 -6.08982e-05 9.57304e-05 -4.46998e-05 -2.8723e-06 -0.0258647 0.0113513 0.00649835 0.004 300 0 
7 1 1 0.0129209 0.0224305 0.00918518 0 0 0 -3.07299e-05 0.000158842 -0.000120576 8.00051e-05 -9.8099e-05 -5.29122e-05 0.0178157 0.00882031 0.00983212 0.004 300 0 
83 1 1 0.0214164 0.0239654 0.00888421 0 0 0 -3.20563e-05 9.79125e-05 -5.93143e-05 3.43704e-05 -0.000139832 -3.35563e-05 0.0021758 0.0128622 0.00313227 0.004 300 0 
747 1 1 -0.0337319 0.0313834 0.00974062 0 0 0 8.06147e-05 5.02538e-06 -0.000410861 9.08901e-05 1.73692e-05 -0.000633081 0.0187172 0.142087 0.0124799 0.004 300 0 
51 1 1 -0.0226191 0.0329655 0.00703439 0 0 0 9.85404e-05 5.41785e-05 -0.00011465 0.000162227 4.22149e-05 -0.000178091 0.00356499 -0.026253 -0.0122717 0.004 300 0 
116 1 1 -0.00940752 0.0391202 0.00809819 0 0 0 -3.34266e-05 7.60254e-05 -5.20452e-05 8.60068e-05 2.56587e-05 1.79541e-05 -0.00854693 0.0103857 0.00436225 0.004 300 0 
205 1 1 -0.000560408 -0.0460777 0.011017 0 0 0 -1.75017e-05 1.29234e-05 7.86369e-05 -7.20248e-05 -2.64469e-05 -0.000121659 0.0115258 -0.040593 0.00833997 0.004 300 0 
836 1 1 0.00737982 -0.0454688 0.0106607 0 0 0 6.91394e-05 -8.12994e-06 6.58136e-05 -8.65601e-05 -4.57663e-05 1.72421e-05 0.00577846 0.0548415 -0.0176858 0.004 300 0 
486 1 1 -0.0156929 -0.0402421 0.0103362 0 0 0 8.25576e-05 -8.1801e-05 -9.52632e-05 -1.68731e-05 -9.9171e-05 -0.000135521 0.029582 0.013279 0.00299052 0.004 300 0 
311 1 1 -0.00836803 -0.0439887 0.0106793 0 0 0 2.82506e-05 2.36334e-05 -2.61853e-05 -0.000120442 4.59969e-05 -0.000273309 -0.0341895 -0.0250098 -0.0917716 0.004 300 0 
447 1 1 0.0180548 -0.0423881 0.0118324 0 0 0 5.63005e-05 2.24212e-05 3.29905e-05 -2.10959e-06 5.86632e-05 -2.48041e-05 0.00865732 -0.00872751 -0.0169602 0.004 300 0 
538 1 1 -0.0295739 -0.0353511 0.0149852 0 0 0 -1.20091e-05 -1.66124e-05 -4.73042e-05 4.37121e-06 -4.10816e-05 2.90431e-05 -0.0121146 0.00282995 -0.0084192 0.004 300 0 
279 1 1 0.011155 -0.0385417 0.0114152 0 0 0 6.28609e-05 -3.45648e-06 3.35238e-05 -0.000111924 -1.57509e-05 -2.4401e-05 -0.00993226 0.00605058 0.0256632 0.004 300 0 
110 1 1 0.0250461 -0.0386628 0.0117246 0 0 0 7.45405e-05 1.68838e-06 5.41496e-05 -5.98055e-05 7.41614e-05 -0.000103083 0.00335937 0.0142961 -0.00315091 0.004 300 0 
188 1 1 -0.0179035 -0.0321013 0.0101577 0 0 0 -2.21479e-05 -9.92337e-06 -9.13572e-05 6.35712e-06 -2.88739e-05 3.60317e-05 -0.00411094 -0.00809952 0.00975759 0.004 300 0 
810 1 1 -0.0102604 -0.0344507 0.0102038 0 0 0 6.84416e-05 -2.63562e-05 4.57807e-06 -3.10304e-05 -6.60088e-05 -1.47552e-05 0.0127473 -0.00134302 0.00420522 0.004 300 0 
412 1 1 -0.00316737 -0.0328807 0.0133515 0 0 0 1.74061e-05 -4.36397e-06 0.00022398 -0.00010636 1.02313e-05 -0.000163921 -0.0173665 -0.040281 0.0107187 0.004 300 0 
545 1 1 0.00452076 -0.0343086 0.0121934 0 0 0 5.73174e-07 -2.29405e-05 0.000168652 -0.000154593 9.44734e-06 -0.000280848 0.0237785 0.045257 -0.00888479 0.004 300 0 
100 1 1 0.0115066 -0.0305928 0.0117075 0 0 0 2.5946e-06 -7.55506e-05 5.51927e-05 -6.137e-05 -2.2603e-05 -0.000386496 0.0198789 0.0109337 -0.00924813 0.004 300 0 
556 1 1 0.0183666 -0.0344774 0.0109251 0 0 0 4.93172e-05 -1.9001e-05 2.07958e-05 -5.06517e-05 0.000103394 -0.000226622 -0.0171395 -0.0100201 0.0237025 0.004 300 0 
32 1 1 0.0311345 -0.0339587 0.0134832 0 0 0 4.08811e-05 -6.15393e-05 9.43667e-05 -1.57826e-05 -2.02549e-05 -0.000149264 0.0243288 0.0171264 0.00613259 0.004 300 0 
5 1 1 -0.0386747 -0.0250105 0.011441 0 0 0 -9.12349e-06 9.98604e-06 -6.30432e-06 -3.37059e-05 7.93676e-06 -5.79226e-05 -0.000336624 0.00142914 0.00147018 0.004 300 0 
415 1 1 -0.0253873 -0.0293589 0.010409 0 0 0 -3.62857e-05 -2.272e-05 -9.0154e-05 4.38782e-05 1.34541e-05 7.5292e-05 0.0195924 -0.00513765 -0.00728024 0.004 300 0 
446 1 1 -0.00968739 -0.0280479 0.0148339 0 0 0 -7.97872e-05 8.33254e-05 -1.254e-05 3.14024e-06 -7.79264e-05 9.79031e-05 -0.048898 -0.0416192 0.0185568 0.004 300 0 
814 1 1 0.0190786 -0.0262839 0.0103733 0 0 0 -6.02472e-05 -7.74091e-05 6.39011e-06 5.2296e-05 0.000161387 -0.000229124 -0.0203058 -0.0109368 -0.00343959 0.004 300 0 
24 1 1 0.028965 -0.0255381 0.0115702 0 0 0 2.42215e-05 -0.000160392 4.18474e-05 8.3228e-05 -6.57784e-06 -1.75288e-05 -0.0197518 0.024483 0.0182496 0.004 300 0 
266 1 1 -0.0293338 -0.022428 0.0104519 0 0 0 -1.16424e-05 3.31188e-05 -4.35147e-05 9.66343e-05 -2.91733e-05 2.6288e-05 0.00093136 -0.00491025 -0.0077336 0.004 300 0 
487 1 1 -0.0208108 -0.0214233 0.0102408 0 0 0 -4.47468e-05 5.92114e-05 -0.000117825 -9.73961e-08 -0.000130476 3.35901e-05 -0.0143053 -0.0057483 -0.0118528 0.004 300 0 
655 1 1 0.00191986 -0.0211544 0.0115796 0 0 0 2.58682e-06 -3.66845e-05 -2.25425e-05 -0.000155038 -3.32726e-05 -0.000149835 0.00710671 0.0191247 -0.00134841 0.004 300 0 
243 1 1 0.0112838 -0.0227127 0.0108927 0 0 0 -4.88667e-05 -0.000109015 6.20968e-05 2.00684e-06 -0.000123417 -0.000350032 -0.0328725 0.0224155 0.014236 0.004 300 0 