ITEM: TIMESTEP
31200
ITEM: NUMBER OF ATOMS
891
ITEM: BOX BOUNDS mm mm mm
-0.05 0.05
-0.05 0.05
0 0.15
ITEM: ATOMS id type type x y z ix iy iz vx vy vz fx fy fz omegax omegay omegaz radius f_Temp[0] f_heatFlux[0] 
199 1 1 -0.00444377 -0.0458158 0.00397435 0 0 0 7.31189e-07 2.78859e-07 1.18075e-06 1.93667e-07 5.0386e-07 -5.85171e-07 0.000213004 -3.42924e-05 -5.05119e-05 0.004 469.602 4.29642 
873 1 1 -0.0201484 -0.0414789 0.0039016 0 0 0 2.24244e-06 4.54675e-07 1.61733e-06 -1.73498e-07 -6.89839e-08 -4.60807e-07 0.000290841 0.000296888 -0.000264637 0.004 371.058 5.65062 
485 1 1 -0.0126796 -0.0442534 0.00397264 0 0 0 1.03236e-06 5.67872e-07 1.55038e-06 1.76523e-07 2.76894e-07 -5.4941e-07 8.80064e-05 -0.00025014 5.29803e-05 0.004 402.811 6.67154 
850 1 1 0.00335642 -0.0441759 0.00394116 0 0 0 1.73743e-06 7.23452e-07 1.44929e-06 -7.76699e-08 2.07301e-07 -4.74186e-07 -0.00013149 0.00039385 -0.000279012 0.004 552.091 -0.0969764 
186 1 1 0.0114401 -0.0445988 0.00392827 0 0 0 9.72549e-07 6.60238e-07 5.82371e-07 1.99137e-08 -6.58648e-08 -1.41512e-07 1.6223e-05 0.000245947 -0.000137526 0.004 666.816 -5.08356 
560 1 1 0.018969 -0.0420006 0.00394676 0 0 0 8.73586e-07 5.10857e-07 1.75893e-07 1.84475e-07 -2.03559e-08 -7.87216e-08 -2.64414e-05 5.50448e-05 -6.76999e-05 0.004 706.063 -5.5842 
102 1 1 -0.0147501 -0.0357331 0.00386312 0 0 0 3.19114e-06 1.70634e-06 3.06506e-06 -1.77889e-07 -4.61774e-07 -8.38041e-07 -1.85734e-05 0.000251548 0.000222339 0.004 400.1 5.01501 
88 1 1 -0.00730762 -0.0383837 0.00392727 0 0 0 2.90488e-06 1.12798e-06 2.29426e-06 -6.50761e-08 2.53828e-07 -9.13582e-07 -0.000218552 0.000276053 -0.000374839 0.004 451.817 4.26554 
776 1 1 0.00520385 -0.0354368 0.00395024 0 0 0 2.77947e-06 1.81714e-06 1.52513e-06 3.44254e-07 2.24277e-07 -1.60836e-07 -0.000125457 0.000209387 -3.56359e-05 0.004 609.343 -2.07219 
410 1 1 0.0130236 -0.0368131 0.00392573 0 0 0 2.05762e-06 1.26347e-06 8.89968e-07 3.37485e-07 -2.35256e-07 -4.84908e-07 -8.03797e-05 0.000279802 -0.000178135 0.004 673.46 -4.62155 
282 1 1 0.025876 -0.0381319 0.00388527 0 0 0 8.54184e-07 9.82176e-07 3.32889e-07 2.64215e-08 -2.86045e-07 -1.49616e-07 -0.000111907 0.000159326 -9.77545e-05 0.004 748.15 -5.09654 
682 1 1 -0.0302016 -0.0348779 0.00393465 0 0 0 1.10597e-06 1.20213e-08 1.07351e-06 -3.91882e-08 5.52508e-08 -1.10632e-07 9.57139e-05 -0.000145487 -0.000173033 0.004 328.833 3.63454 
251 1 1 -0.0224189 -0.0338476 0.00392332 0 0 0 2.7075e-06 7.99264e-07 3.02344e-06 -2.86366e-08 -7.94205e-08 -4.08165e-07 -0.0001144 4.35476e-05 0.000145315 0.004 358.571 4.86541 
770 1 1 -0.00204754 -0.0321408 0.00393965 0 0 0 3.29083e-06 1.85349e-06 1.70552e-06 1.92095e-07 6.585e-07 -3.51392e-07 -0.00026058 0.000124278 0.000242529 0.004 541.742 0.561669 
883 1 1 0.018166 -0.0307535 0.00390025 0 0 0 2.29724e-06 1.99077e-06 5.60615e-07 5.60244e-07 -7.27486e-07 -1.13975e-06 -0.000371424 0.000209593 0.000150941 0.004 716.222 -4.99193 
838 1 1 0.0320336 -0.033109 0.00396073 0 0 0 8.98556e-07 8.87435e-07 -2.00307e-07 1.09401e-07 -1.3911e-07 -2.45273e-07 -0.000151275 0.000151951 -0.000170946 0.004 771.114 -4.00068 
617 1 1 -0.0372521 -0.0271215 0.00391646 0 0 0 7.6393e-07 1.99857e-07 1.06513e-06 4.43763e-08 1.15371e-07 6.28718e-08 -1.90958e-05 -6.23843e-05 -6.84346e-05 0.004 310.786 2.11522 
824 1 1 -0.0292998 -0.0270298 0.00392984 0 0 0 1.88706e-06 -2.59303e-07 1.86274e-06 -6.21324e-10 3.07257e-08 4.73846e-08 0.000131924 0.000206869 -3.511e-06 0.004 320.837 3.0595 
571 1 1 -0.0202615 -0.0262215 0.00393285 0 0 0 3.56428e-06 1.00693e-06 2.63533e-06 2.89259e-07 -1.78765e-07 -3.13057e-07 -6.5804e-05 0.000540706 5.63466e-05 0.004 355.298 4.80935 
861 1 1 -0.00959295 -0.0297304 0.00389699 0 0 0 4.33743e-06 2.02649e-06 3.00391e-06 3.34427e-08 -7.81397e-07 -9.93338e-07 -8.02031e-05 0.000699256 -0.000438567 0.004 445.734 3.95298 
434 1 1 0.0103455 -0.0293807 0.00393743 0 0 0 2.90994e-06 1.90451e-06 1.46982e-06 2.68384e-07 -6.25766e-07 -8.23646e-07 -0.000176655 0.000482584 -6.33341e-05 0.004 660.61 -3.82674 
103 1 1 0.0311547 -0.0252347 0.00394364 0 0 0 1.54242e-06 1.3633e-06 -2.61388e-07 5.30418e-07 1.84274e-07 -7.59349e-07 -7.37517e-06 0.00011575 -0.000149148 0.004 776.069 -3.3924 
769 1 1 -0.041344 -0.0202818 0.0039823 0 0 0 5.9453e-07 6.45721e-08 7.36621e-07 -8.66383e-08 1.58079e-08 -2.88413e-08 8.6031e-05 -0.000127386 -1.76791e-05 0.004 305.942 1.42544 
94 1 1 -0.0333714 -0.0202163 0.00394369 0 0 0 1.56685e-06 9.71122e-09 2.09668e-06 1.48798e-07 3.73868e-08 3.63775e-07 6.44895e-05 -5.22043e-05 -6.05014e-05 0.004 313.37 2.27421 
40 1 1 -0.025401 -0.0201464 0.00391761 0 0 0 2.34982e-06 7.10809e-08 2.5508e-06 3.62655e-07 -1.11321e-07 3.16953e-07 1.30288e-05 0.000140209 5.4876e-05 0.004 330.29 3.53591 
19 1 1 -0.00865073 -0.0218804 0.00393967 0 0 0 4.9045e-06 1.88441e-06 2.4264e-06 3.61386e-07 -9.74402e-07 -6.91413e-07 -0.000218363 0.000852027 0.000296182 0.004 448.012 3.98365 
442 1 1 -0.000436975 -0.0218499 0.00393585 0 0 0 4.6271e-06 2.96805e-06 2.26011e-06 5.11775e-07 -1.21437e-06 -1.90723e-06 -0.000306997 0.000717169 0.000235525 0.004 551.371 0.414902 
259 1 1 0.00753191 -0.0220001 0.00392512 0 0 0 3.43953e-06 2.84148e-06 1.22373e-06 -2.3408e-07 -6.90607e-07 -1.2985e-06 -0.000476127 0.000516047 -0.000321049 0.004 642.792 -3.14423 
512 1 1 0.0153883 -0.0232356 0.00397835 0 0 0 2.24475e-06 2.30863e-06 8.68988e-07 2.5361e-07 -9.5838e-07 -1.02589e-06 -6.1198e-05 -0.000134527 0.000301751 0.004 709.232 -4.46922 
470 1 1 0.0232616 -0.0243589 0.00390817 0 0 0 2.05393e-06 2.67391e-06 2.80344e-07 4.16764e-07 -5.0949e-07 -1.71426e-06 -0.000514411 0.000343089 -0.000172301 0.004 752.03 -4.50194 
451 1 1 0.0390293 -0.0244875 0.00392048 0 0 0 8.77755e-07 6.51659e-07 -7.7118e-08 3.72503e-07 -1.32897e-07 -1.53476e-07 -0.000124825 0.000109303 -0.000113038 0.004 788.191 -2.21891 
531 1 1 -0.0164596 -0.0192004 0.00396126 0 0 0 2.757e-06 9.64308e-07 1.13298e-06 -2.93572e-08 1.27183e-07 -2.46352e-07 -3.53465e-05 0.000439109 2.24802e-05 0.004 364.905 5.22393 
229 1 1 0.0202059 -0.0169136 0.00386877 0 0 0 1.92729e-06 3.03932e-06 9.39824e-07 8.60158e-07 -5.52816e-07 -2.13059e-06 -0.000519895 0.000332076 -0.000176959 0.004 740.372 -4.4071 
734 1 1 0.0280521 -0.017942 0.00394398 0 0 0 1.95694e-06 2.79959e-06 -7.56585e-08 1.16741e-06 2.97717e-07 -1.19794e-06 -0.000386253 0.00035966 0.000166709 0.004 774.067 -3.22237 
635 1 1 0.0425981 -0.0174495 0.00392192 0 0 0 3.92167e-07 2.4236e-07 -1.80009e-07 1.42523e-07 8.11657e-08 6.06882e-08 2.56107e-05 3.35025e-05 9.00612e-05 0.004 795.598 -1.0978 
87 1 1 -0.0448224 -0.0104639 0.0039142 0 0 0 8.63851e-07 -2.71279e-07 6.71083e-07 2.21469e-07 -9.21167e-08 3.11838e-07 -1.28657e-06 0.00012787 0.000102126 0.004 302.376 0.692987 
406 1 1 -0.0373951 -0.013391 0.00396016 0 0 0 1.10229e-06 2.10386e-07 1.38725e-06 -6.9215e-08 -1.78631e-07 5.62362e-07 -7.52842e-05 1.24539e-05 1.4707e-05 0.004 305.781 1.31894 
224 1 1 -0.0230581 -0.0126019 0.00387961 0 0 0 2.68466e-06 1.7601e-07 2.49858e-06 1.32075e-06 -2.74727e-07 6.71443e-07 4.54961e-05 0.000406555 -9.69262e-06 0.004 343.212 3.82762 
751 1 1 -0.0102997 -0.0141545 0.00396945 0 0 0 2.82862e-06 1.28656e-06 1.66516e-06 7.65103e-07 -5.44291e-07 3.81772e-08 -8.3944e-05 3.30899e-05 4.42785e-05 0.004 423.586 4.22912 
622 1 1 -0.00273389 -0.0117409 0.00388525 0 0 0 3.03441e-06 2.29703e-06 1.7449e-06 6.42154e-07 -1.0717e-06 -4.82275e-07 -0.000458206 0.000345302 0.000390156 0.004 504.482 1.63838 
128 1 1 0.00951065 -0.010685 0.0038846 0 0 0 2.35803e-06 3.43413e-06 2.15505e-06 8.50269e-07 -4.58815e-07 -2.26546e-06 -0.000558588 0.000321684 -0.000102793 0.004 670.37 -3.94716 
68 1 1 0.0262808 -0.010211 0.0039544 0 0 0 1.49523e-06 2.74171e-06 7.06094e-08 1.9926e-06 6.78818e-08 -1.46503e-06 -0.000312719 0.000264919 -0.00010392 0.004 777.072 -3.07142 
791 1 1 0.0340945 -0.0118532 0.00392802 0 0 0 1.58602e-06 3.36064e-06 1.0623e-07 2.1431e-06 8.83787e-07 -7.48161e-07 -0.000734935 0.00029937 0.00056758 0.004 791.425 -1.73082 
354 1 1 -0.0380749 -0.00550396 0.00392042 0 0 0 1.40878e-06 -1.02249e-07 1.46976e-06 4.95946e-07 -2.19568e-07 8.62324e-07 8.04226e-05 0.000248124 -5.61705e-05 0.004 305.236 1.16706 
725 1 1 -0.0304901 -0.00800531 0.0039252 0 0 0 1.6832e-06 -1.84992e-07 1.3546e-06 2.63952e-07 -3.23774e-07 4.96399e-07 -8.64596e-05 0.000327733 1.52566e-05 0.004 312.221 2.0625 
353 1 1 -0.0161288 -0.00879809 0.00391144 0 0 0 2.36488e-06 7.2276e-07 1.57748e-06 1.32663e-06 2.85742e-08 3.73404e-07 -1.4405e-05 0.000241448 6.20692e-05 0.004 381.793 4.34732 
391 1 1 -0.00857662 -0.00639748 0.00391358 0 0 0 2.07114e-06 1.16293e-06 1.63065e-06 1.21287e-06 -5.29247e-07 1.80257e-07 4.65245e-05 0.000256726 2.50742e-05 0.004 444.811 3.61898 
683 1 1 0.0173533 -0.00945628 0.00390988 0 0 0 1.95451e-06 2.94588e-06 3.25761e-07 1.5065e-06 -2.74061e-07 -2.70939e-06 -0.000528959 0.00030142 9.96262e-05 0.004 731.033 -4.56131 
690 1 1 0.0385537 -0.00520143 0.00390023 0 0 0 1.18574e-06 2.29595e-06 -1.07919e-07 9.98368e-07 1.5195e-06 -5.60127e-07 -0.000464078 0.000268827 -0.000501335 0.004 795.821 -0.985393 
10 1 1 0.0449635 -0.00990888 0.003974 0 0 0 -1.66558e-07 4.7467e-07 1.67952e-07 2.55495e-07 3.58562e-07 -8.01239e-08 -1.53251e-05 -4.95954e-05 -5.72019e-07 0.004 797.794 -0.650421 
402 1 1 -0.046017 -0.00264172 0.00392181 0 0 0 7.97599e-07 -3.26073e-07 1.00779e-06 3.57331e-07 -2.7285e-07 5.8962e-07 8.08521e-05 -3.33553e-06 -8.8008e-05 0.004 302.699 0.71738 
761 1 1 -0.0294744 -0.000168332 0.00392562 0 0 0 1.59485e-06 -1.71478e-07 1.45927e-06 8.00846e-07 -5.52909e-07 1.17974e-06 -8.28331e-06 0.000259699 8.93449e-05 0.004 320.077 2.66063 
293 1 1 -0.0229324 -0.00466872 0.00395949 0 0 0 2.10857e-06 3.68612e-07 1.43428e-06 1.065e-06 -2.96556e-07 9.61925e-07 -0.00016602 0.000196376 3.58414e-05 0.004 341.482 3.90267 
384 1 1 -0.0147534 -0.000906007 0.0039815 0 0 0 0.000333904 -0.000724945 -2.19828e-10 -9.31654e-15 2.02266e-14 -3.16446e-10 0.181657 0.0836696 0.226562 0.004 301.492 0 
378 1 1 0.00130608 -0.00490406 0.00392907 0 0 0 1.0589e-06 2.26376e-06 1.05254e-06 6.28225e-07 -6.54872e-07 -1.79369e-07 -0.000353978 -0.000160781 0.000256658 0.004 557.269 -0.385835 
390 1 1 0.0103707 -0.0027653 0.00396887 0 0 0 6.90105e-07 2.72869e-06 8.89885e-07 1.24163e-06 -3.06009e-07 -2.00138e-06 -0.000172143 -3.77333e-05 0.000683967 0.004 689.728 -4.95579 
411 1 1 0.0223603 -0.00329286 0.00397627 0 0 0 1.20929e-06 2.55706e-06 2.56844e-07 1.17791e-06 1.44248e-07 -2.21019e-06 7.037e-05 -0.000109388 2.89854e-05 0.004 764.377 -3.98166 
342 1 1 0.0307348 -0.00361665 0.0039753 0 0 0 3.65455e-07 2.66814e-06 1.99531e-08 1.27568e-06 3.29714e-07 -4.05781e-07 -0.000136721 -0.000131812 0.000435952 0.004 791.082 -1.74078 
262 1 1 0.0460221 -0.00206505 0.00395833 0 0 0 -1.49634e-07 5.82102e-07 1.8458e-07 4.71154e-07 3.69752e-07 -1.68203e-07 -7.10195e-05 1.33762e-05 -5.32852e-05 0.004 797.914 -0.621099 
261 1 1 -0.0398214 0.00224601 0.00393475 0 0 0 1.10095e-06 -3.05026e-07 1.31944e-06 6.78799e-07 -3.89129e-07 9.23171e-07 -2.885e-05 4.97586e-05 8.46889e-05 0.004 305.802 1.1787 
666 1 1 -0.00454676 0.000451427 0.00395605 0 0 0 1.86204e-06 1.32888e-06 4.96645e-07 9.3037e-07 -1.74645e-07 -1.24818e-07 -0.000136837 0.00052935 -6.52761e-05 0.004 490.323 2.3948 
815 1 1 0.00434367 0.0024356 0.00392712 0 0 0 1.00357e-06 2.01924e-06 6.30327e-07 1.23809e-06 -9.15145e-08 -6.11407e-07 -0.000185295 8.63576e-05 -0.000409889 0.004 613.317 -2.5273 
306 1 1 0.01637 0.00247667 0.00395811 0 0 0 5.14708e-07 3.45382e-06 7.2919e-07 1.30291e-08 6.82496e-07 -1.89266e-06 -0.000713058 -2.39919e-05 -0.000639187 0.004 739.556 -5.13642 
178 1 1 0.0241042 0.00444176 0.00386116 0 0 0 3.64515e-07 2.35709e-06 2.09852e-07 3.54082e-07 6.00349e-07 -2.19692e-06 -0.000350439 9.55587e-05 0.000299436 0.004 766.768 -3.78052 
862 1 1 0.0320656 0.00423367 0.00393099 0 0 0 -1.19175e-07 2.52705e-06 -3.89102e-07 6.13256e-07 4.30677e-07 -1.83324e-06 -0.000444706 -6.15081e-05 -0.000360132 0.004 787.243 -2.13018 
661 1 1 0.0398756 0.00291469 0.00394681 0 0 0 -5.92179e-08 9.68282e-07 1.71605e-07 6.37559e-07 4.94939e-07 -4.45194e-07 -0.000155476 2.73417e-05 -4.55839e-05 0.004 795.424 -1.05368 
677 1 1 -0.0453782 0.0078854 0.00393641 0 0 0 3.57365e-07 -2.96111e-07 4.82323e-07 2.20723e-07 -3.47448e-07 5.17269e-07 -1.35861e-05 -2.6967e-05 1.33461e-05 0.004 302.747 0.742474 
12 1 1 -0.0333161 0.0067196 0.00393695 0 0 0 9.09507e-07 -1.27946e-07 1.03675e-06 6.49864e-07 -4.52386e-07 1.08935e-06 -9.03873e-05 6.68303e-05 3.66345e-05 0.004 314.148 2.12051 
420 1 1 -0.0254 0.00664838 0.00392686 0 0 0 1.0166e-06 8.98741e-08 6.66514e-07 7.63627e-07 -3.49068e-07 1.03872e-06 -6.00474e-05 8.71352e-05 6.8094e-05 0.004 333.928 3.41808 
654 1 1 -0.0175134 0.00720947 0.00387212 0 0 0 1.1097e-06 5.08304e-07 2.63873e-07 1.00967e-06 -3.32133e-07 6.85643e-07 -0.00014728 0.000139009 5.81699e-05 0.004 371.072 4.42652 
145 1 1 -0.00454408 0.00836537 0.00386311 0 0 0 1.22463e-06 1.26532e-06 -1.22856e-07 1.0427e-06 1.24995e-07 -3.69215e-08 -0.000213802 0.000158676 0.000191425 0.004 488.305 2.63171 
624 1 1 0.0451449 0.00890653 0.00390658 0 0 0 1.98344e-07 7.56265e-07 -2.25487e-07 8.43956e-07 4.74021e-07 -5.67046e-07 -0.000168765 2.18053e-05 3.63255e-06 0.004 797.171 -0.775639 
613 1 1 -0.0372991 0.0135339 0.00384343 0 0 0 3.01166e-07 -1.48243e-07 3.03633e-07 4.17e-07 -3.76017e-07 1.02969e-06 -7.289e-05 4.74627e-05 8.46499e-05 0.004 307.621 1.5023 
265 1 1 -0.0293062 0.0135429 0.00396371 0 0 0 4.15166e-07 1.18735e-07 5.62914e-08 3.70766e-07 -4.61628e-07 8.07804e-07 -0.000123788 4.59914e-05 4.58712e-05 0.004 321.439 2.91912 
273 1 1 -0.0213694 0.0141274 0.00392938 0 0 0 3.87748e-07 3.22567e-07 -2.38641e-07 3.13321e-07 -2.53221e-07 7.96036e-07 -6.49465e-05 4.81234e-05 6.36349e-05 0.004 343.115 4.10587 
492 1 1 -0.01145 0.0123712 0.00398079 0 0 0 8.7639e-07 4.35402e-07 -4.36731e-07 3.80352e-07 3.54344e-07 3.1594e-07 -6.18083e-05 7.90813e-05 -2.32216e-05 0.004 418.071 5.31426 
234 1 1 0.00585284 0.010393 0.00392891 0 0 0 1.05388e-06 1.63268e-06 1.60853e-07 1.05563e-06 8.57961e-07 -6.53111e-07 -0.000344658 0.000130619 0.000110367 0.004 605.415 -1.72737 
160 1 1 0.0142843 0.0106356 0.00390959 0 0 0 7.12527e-07 2.13953e-06 3.68318e-07 8.23226e-07 1.32969e-06 -9.45817e-07 -0.000487888 0.000200126 0.000145637 0.004 703.992 -4.2803 
484 1 1 0.0220893 0.0120738 0.00390121 0 0 0 2.60868e-07 1.99519e-06 -4.68407e-07 4.54914e-07 9.60833e-07 -1.57167e-06 -0.000249097 3.07369e-05 -0.000208118 0.004 754.041 -3.98672 
743 1 1 0.0300184 0.0126216 0.00398127 0 0 0 2.045e-07 9.01575e-07 -1.65077e-07 5.17591e-07 2.15012e-06 -1.9847e-07 -0.000116928 -1.08803e-05 -4.9504e-05 0.004 777.669 -2.91503 
514 1 1 0.0379536 0.0130186 0.00386906 0 0 0 2.83826e-07 1.07618e-06 -5.60414e-07 6.88762e-07 9.96004e-07 -9.29898e-07 -0.000207867 8.68787e-05 6.35951e-05 0.004 791.282 -1.63809 
530 1 1 -0.0159002 0.0198648 0.00392795 0 0 0 3.43719e-07 3.37949e-07 -1.0576e-06 -2.95424e-07 1.85617e-07 9.5423e-07 7.38477e-06 0.000188531 -3.82149e-05 0.004 369.97 4.77542 
227 1 1 -0.00736503 0.0192084 0.00396595 0 0 0 5.00499e-07 5.27121e-07 -1.27651e-06 -1.0406e-07 6.84774e-07 3.90228e-07 -0.000122108 4.21994e-05 0.000178467 0.004 459.925 4.30628 
392 1 1 -0.000498635 0.0151513 0.00394446 0 0 0 7.81935e-07 1.10361e-06 -8.20192e-07 6.26175e-07 6.7443e-07 -1.20715e-07 -0.000102402 -2.24991e-05 -6.68942e-05 0.004 531.356 1.33533 
493 1 1 0.00985839 0.0172531 0.00394648 0 0 0 7.95219e-07 1.63075e-06 -8.24004e-07 5.64892e-07 1.48431e-06 -8.21573e-07 -0.000207131 3.21521e-05 -6.5569e-05 0.004 652.865 -3.05314 
34 1 1 0.0176357 0.0187852 0.00394101 0 0 0 6.40946e-07 1.63273e-06 -9.12125e-07 1.53106e-07 1.85396e-06 -1.27121e-06 -0.000370247 9.74148e-05 3.85412e-05 0.004 716.186 -4.10161 
206 1 1 0.0255397 0.0192353 0.00396994 0 0 0 4.95932e-07 1.42955e-06 -7.31288e-07 1.83848e-07 1.08233e-06 -1.03118e-06 -0.000152543 -0.000150966 -6.04343e-05 0.004 760.574 -3.6407 
104 1 1 0.0334175 0.0199346 0.00389651 0 0 0 5.69161e-07 1.12418e-06 -5.38279e-07 7.90098e-07 8.38396e-07 -8.76098e-07 -0.000246036 0.000136013 -1.60452e-05 0.004 781.856 -2.58875 
809 1 1 -0.0412059 0.0204949 0.00395497 0 0 0 1.59772e-08 -1.07107e-07 -2.3277e-08 7.30046e-08 -2.65e-07 3.46073e-07 -1.27287e-05 2.05463e-05 5.96862e-06 0.004 304.364 1.12872 
773 1 1 -0.0331523 0.0204531 0.00393521 0 0 0 5.46076e-08 1.2331e-07 -3.47229e-07 3.00774e-07 -5.43471e-07 1.11302e-06 -2.85038e-05 5.18317e-05 4.83147e-05 0.004 314.225 2.4563 
792 1 1 0.00347677 0.0219735 0.00392106 0 0 0 6.63782e-07 1.19477e-06 -1.18244e-06 1.74412e-07 1.03606e-06 -1.20279e-07 -0.000103433 9.70668e-05 0.000149378 0.004 586.546 -0.944711 
718 1 1 0.0413199 0.0203659 0.00392989 0 0 0 3.36846e-07 6.79527e-07 -3.72252e-07 5.23505e-07 4.19838e-07 -5.60715e-07 -0.000133644 -1.84088e-05 -5.66212e-05 0.004 791.466 -1.70263 
101 1 1 -0.0371146 0.0272995 0.00390401 0 0 0 -2.45707e-07 5.31576e-08 -2.61511e-07 2.53058e-07 -4.59501e-07 5.94717e-07 -1.26234e-05 -2.89598e-05 4.76131e-05 0.004 309.742 1.98071 
246 1 1 -0.0290567 0.0272807 0.0039827 0 0 0 3.83821e-07 3.13232e-07 -5.58772e-07 -3.5243e-07 -2.10643e-07 4.07971e-07 8.43053e-06 0.000154771 -6.12874e-05 0.004 317.513 2.87019 
331 1 1 -0.0212281 0.0257799 0.00390018 0 0 0 2.48785e-07 4.25662e-07 -1.16442e-06 -3.49365e-07 -1.40648e-07 7.00163e-07 -0.000111512 -6.25074e-05 2.14148e-05 0.004 344.268 4.09853 
846 1 1 -0.0134708 0.0274168 0.0039748 0 0 0 4.17693e-07 5.01986e-07 -1.00277e-06 -3.41007e-07 9.64181e-08 4.96957e-07 -1.53767e-05 6.76958e-06 2.88965e-06 0.004 392.371 4.44026 
348 1 1 -0.00329916 0.0260612 0.00393374 0 0 0 2.61076e-07 7.74989e-07 -1.70842e-06 9.56893e-08 7.44249e-07 4.8163e-07 -1.70302e-05 -0.000237061 -9.15739e-05 0.004 511.596 1.96403 
786 1 1 0.00840353 0.0281551 0.00389685 0 0 0 5.90527e-07 1.39998e-06 -1.76128e-06 1.10545e-07 1.20882e-06 -2.70205e-07 -0.000312467 6.32276e-05 -3.16915e-05 0.004 636.697 -2.91408 
316 1 1 0.0162833 0.0272928 0.0039063 0 0 0 5.13238e-07 1.37257e-06 -1.12984e-06 7.91644e-08 1.40981e-06 -4.42966e-07 -0.000182851 -2.73723e-05 3.03011e-05 0.004 711.691 -4.65469 
495 1 1 0.0288861 0.0264618 0.00396716 0 0 0 6.46606e-07 1.03068e-06 -9.16943e-07 5.13294e-07 7.4995e-07 -8.77719e-07 -0.000170101 2.30102e-05 -2.98097e-05 0.004 773.345 -3.481 
863 1 1 0.0367263 0.0277633 0.00392937 0 0 0 4.11235e-07 5.67794e-07 -3.93655e-07 4.36156e-07 3.28757e-07 -4.7189e-07 -0.000104283 1.63623e-05 -2.90914e-05 0.004 787.868 -2.30686 
511 1 1 -0.00761835 0.0327132 0.00388553 0 0 0 2.38382e-07 8.5051e-07 -1.66364e-06 -3.02972e-07 2.87598e-07 4.00336e-07 -0.000119392 0.000146122 6.11015e-05 0.004 474.074 2.97353 
722 1 1 0.00164033 0.0322874 0.00396635 0 0 0 6.26922e-07 1.06165e-06 -1.62727e-06 1.10662e-09 7.26951e-07 5.64546e-08 -0.000252406 0.000265686 0.000122894 0.004 568.149 -0.53226 
2 1 1 0.0229311 0.031696 0.00396244 0 0 0 8.4607e-07 7.80862e-07 -1.16329e-06 4.8475e-07 5.81811e-07 -7.42081e-07 -2.91057e-05 0.000130432 -1.6274e-05 0.004 747.698 -5.05303 
254 1 1 0.030441 0.0344758 0.0039815 0 0 0 0.000481608 -0.000706171 -2.30318e-07 -7.4436e-11 7.67258e-11 -1.30515e-07 0.176952 0.120681 -0.0211551 0.004 798.547 0 
257 1 1 -0.0296322 0.0352231 0.00395613 0 0 0 7.47269e-08 4.762e-07 -7.82671e-07 -2.12985e-07 -2.76803e-07 4.12509e-07 -9.24084e-05 0.000113617 0.000153399 0.004 318.461 3.1925 
582 1 1 -0.0157655 0.0356206 0.00393204 0 0 0 -5.92952e-09 1.4883e-06 -1.75127e-06 -2.21776e-07 -2.38529e-07 7.34021e-07 -0.00023055 3.79906e-05 0.000107509 0.004 356.124 5.31367 
255 1 1 -0.00267125 0.038932 0.00391147 0 0 0 4.00129e-07 7.71807e-07 -1.99805e-06 -2.79219e-07 3.21889e-07 3.96697e-07 -0.000117886 6.62832e-05 -5.22827e-05 0.004 515.695 1.47723 
887 1 1 0.00812084 0.0373183 0.00392889 0 0 0 7.55949e-07 1.34469e-06 -1.40003e-06 1.02603e-07 7.15216e-07 1.9085e-07 -0.000165656 5.14919e-05 -0.000178973 0.004 662.433 -4.87495 
719 1 1 0.0157853 0.0351951 0.00398364 0 0 0 3.14655e-07 7.04521e-07 -8.6239e-07 2.7776e-07 6.40402e-07 -3.21806e-07 0.000103442 -6.03293e-05 6.25786e-05 0.004 716.598 -5.5336 
21 1 1 0.0234243 0.0396338 0.00391497 0 0 0 2.66636e-07 3.57751e-07 -4.0194e-07 1.62938e-07 2.09914e-07 -1.78398e-07 8.55563e-06 3.58219e-05 9.54296e-05 0.004 751.211 -5.02644 
325 1 1 -0.0222388 0.0402984 0.00393951 0 0 0 -5.28394e-08 5.52534e-07 -8.9445e-07 -1.92797e-07 -1.71199e-07 2.50352e-07 -1.04939e-05 4.73935e-05 8.571e-05 0.004 344.694 5.08466 
595 1 1 -0.014931 0.0435393 0.00398254 0 0 0 2.40507e-08 3.9633e-07 -8.90977e-07 -2.06214e-07 -1.15197e-08 2.29428e-07 0.000201901 2.47984e-05 -5.35165e-05 0.004 380.816 5.21371 
568 1 1 0.0162912 0.0430934 0.00392629 0 0 0 2.31272e-07 4.82669e-07 -4.35319e-07 3.49575e-08 2.18954e-07 2.22242e-08 -6.00755e-05 -2.6777e-05 -0.000101552 0.004 712.535 -5.29955 
387 1 1 -0.00719691 0.045487 0.00389932 0 0 0 3.28014e-07 4.23859e-07 -1.17802e-06 -1.45223e-07 6.8195e-08 2.75154e-07 0.000111608 9.03318e-05 2.89978e-05 0.004 476.719 2.98736 
852 1 1 0.000758888 0.0460615 0.00397617 0 0 0 2.9384e-07 1.73505e-07 -9.01361e-07 -1.0732e-07 1.60355e-07 1.11513e-07 0.000216094 -7.18989e-05 3.44108e-05 0.004 556.082 -0.385149 
157 1 1 0.00865317 0.0452492 0.00389824 0 0 0 5.7867e-07 8.27705e-07 -9.20813e-07 1.62753e-08 2.14762e-07 -8.82677e-09 -3.77101e-05 4.64209e-05 9.96372e-05 0.004 649.256 -4.05649 
400 1 1 -0.024752 -0.0387964 0.00974418 0 0 0 2.9315e-06 3.59778e-07 2.09378e-06 7.20027e-10 -1.96912e-07 -5.2157e-07 0.000198629 -0.000223596 -0.000372827 0.004 341.531 4.88008 
606 1 1 -0.000653943 -0.0387266 0.00813892 0 0 0 5.18014e-06 3.11072e-06 3.77075e-06 4.4515e-08 -1.75341e-07 -1.03295e-06 -0.000527744 0.000255528 0.000192998 0.004 546.307 0.564985 
724 1 1 -0.0339144 -0.0311598 0.00984801 0 0 0 1.87887e-06 9.17502e-07 1.55043e-06 3.96729e-07 7.54261e-09 -9.0024e-08 -0.000125839 0.000223572 7.37229e-05 0.004 316.12 2.68783 
183 1 1 0.0251947 -0.0311656 0.00751476 0 0 0 2.30379e-06 2.58345e-06 6.89143e-07 7.4707e-07 -2.49744e-07 -1.39295e-06 8.90903e-05 6.6861e-05 -7.44236e-05 0.004 755.391 -4.55414 
544 1 1 -0.0140218 -0.0253028 0.00874965 0 0 0 7.19497e-06 3.52663e-06 4.96321e-06 1.04714e-06 -1.2229e-06 -1.09637e-06 -0.000143511 -0.000179332 0.000186282 0.004 397.593 4.61951 
29 1 1 -0.00450629 -0.0263793 0.0090073 0 0 0 8.26581e-06 4.49488e-06 4.42925e-06 1.08725e-06 -2.16003e-06 -2.45486e-06 -0.000565062 -4.44672e-05 0.000203756 0.004 486.219 2.80745 
248 1 1 0.003499 -0.0278426 0.00763309 0 0 0 5.48226e-06 4.21469e-06 4.02572e-06 1.27911e-06 -1.12842e-06 -3.61991e-07 0.000112922 0.000264892 -0.000310713 0.004 594.426 -1.71163 
79 1 1 0.035837 -0.0289489 0.00959648 0 0 0 1.37401e-06 6.65071e-07 -3.72511e-07 4.82574e-07 2.19504e-07 -5.66986e-07 0.000203527 -0.000127005 -7.46321e-05 0.004 781.913 -2.94495 
291 1 1 -0.00458873 -0.0173975 0.00909525 0 0 0 6.97987e-06 4.12277e-06 4.0238e-06 2.41482e-06 -2.80135e-06 -1.84725e-06 -0.000163091 -0.000128137 7.46803e-05 0.004 500.39 1.76497 
891 1 1 0.00373488 -0.015528 0.0063251 0 0 0 4.62486e-06 4.52996e-06 2.98405e-06 1.03815e-06 -1.37889e-06 -2.11464e-06 0.000217194 -4.83563e-05 0.000153188 0.004 592.781 -1.48472 
870 1 1 0.0138323 -0.0156364 0.0083102 0 0 0 3.61171e-06 5.64732e-06 2.59999e-06 9.56449e-07 -3.77349e-07 -3.92453e-06 -0.000156975 0.000223345 1.01082e-05 0.004 696.534 -4.61083 
777 1 1 0.034969 -0.018778 0.00771001 0 0 0 1.82519e-06 2.70134e-06 5.14608e-07 1.60807e-06 8.156e-07 -7.44197e-07 0.000502746 -0.000545755 -0.00045601 0.004 788.724 -2.08563 
837 1 1 -0.029449 -0.0146727 0.00803325 0 0 0 3.24289e-06 3.23745e-07 3.49214e-06 1.39188e-06 -1.04032e-07 9.91894e-07 -0.000238685 8.524e-05 3.14091e-05 0.004 319.929 2.64306 
445 1 1 -0.0181359 -0.0138493 0.00995276 0 0 0 6.32551e-06 2.6448e-06 5.13521e-06 3.90932e-06 -9.97494e-07 1.59268e-07 -0.000670342 -5.04515e-05 0.000477245 0.004 367.577 4.37607 
783 1 1 0.00485896 -0.00860656 0.00993771 0 0 0 4.09403e-06 6.02084e-06 4.07339e-06 1.43886e-06 -1.48186e-06 -1.92524e-06 -0.000344244 0.000454447 0.000451138 0.004 608.902 -2.17805 
615 1 1 -0.0350999 -0.000758706 0.00955181 0 0 0 2.79713e-06 -3.29497e-07 2.72435e-06 1.47304e-06 -8.72685e-07 1.90502e-06 7.33008e-07 3.32323e-05 1.64801e-05 0.004 309.454 1.61107 
476 1 1 -0.0459522 0.00262139 0.00988977 0 0 0 9.1954e-07 -2.58978e-07 1.16302e-06 1.79011e-07 -4.60783e-07 7.74416e-07 -0.000132434 -0.000100005 6.43781e-05 0.004 301.982 0.587243 
16 1 1 -0.0210456 0.00169439 0.00830925 0 0 0 2.90103e-06 1.03658e-06 1.6372e-06 1.73121e-06 -3.40712e-07 1.86752e-06 -0.000159656 0.000134325 0.000206071 0.004 349.777 4.02973 
303 1 1 0.0459492 0.00350463 0.00962657 0 0 0 3.83795e-07 1.60561e-06 1.02347e-07 1.08127e-06 1.06183e-06 -8.75817e-07 -3.94601e-05 5.50543e-05 -0.000245756 0.004 797.484 -0.707119 
523 1 1 -0.0389797 0.00803081 0.00932859 0 0 0 1.43249e-06 -2.39842e-07 1.60769e-06 7.06734e-07 -1.10069e-06 1.80772e-06 -3.40242e-05 0.000125663 7.12812e-05 0.004 305.94 1.22774 
704 1 1 -0.010798 0.00519223 0.00743859 0 0 0 2.24473e-06 1.84402e-06 9.49317e-07 1.54237e-06 -3.51563e-07 7.58883e-07 -0.000406084 1.68519e-05 0.000196393 0.004 422.551 4.12418 
454 1 1 0.00101179 0.00715932 0.00933957 0 0 0 1.97153e-06 3.58961e-06 3.94063e-07 9.72743e-07 8.64507e-07 -1.20759e-06 -0.000146415 -8.03987e-05 5.42897e-05 0.004 554.579 -0.00936338 
31 1 1 0.0102164 0.0054759 0.00832593 0 0 0 1.44958e-06 3.74226e-06 2.429e-06 7.11325e-07 7.79026e-07 -2.23571e-06 -0.000390061 -0.000313273 0.000182886 0.004 660.647 -3.67894 
135 1 1 0.0188885 0.00749169 0.00960786 0 0 0 1.2323e-06 4.62954e-06 3.51581e-07 1.2151e-06 1.85809e-06 -3.60424e-06 3.6303e-05 -0.000122235 0.000297394 0.004 749.838 -4.71906 
712 1 1 0.0281139 0.00743265 0.00998859 0 0 0 6.70915e-07 4.50012e-06 -4.70107e-07 2.38907e-06 2.28405e-06 -4.8391e-06 -3.79479e-05 0.000223426 0.000127694 0.004 776.736 -3.1432 
210 1 1 0.0394934 0.00814606 0.00989882 0 0 0 1.57917e-07 2.43699e-06 -5.29788e-07 2.11877e-06 1.32962e-06 -1.34782e-06 -0.000205903 -0.000102361 -8.65075e-05 0.004 794.725 -1.18249 
651 1 1 -0.0437987 0.0143398 0.00823565 0 0 0 3.26924e-07 -1.34493e-07 3.64051e-07 3.39443e-07 -3.23416e-07 8.70697e-07 -7.03514e-05 2.95476e-05 3.79369e-05 0.004 303.802 0.965552 
621 1 1 0.0437181 0.0147846 0.00900766 0 0 0 3.64004e-07 1.04999e-06 -5.50455e-07 9.67839e-07 5.47049e-07 -1.02154e-06 7.9272e-05 -5.69965e-05 -0.000131931 0.004 793.993 -1.28956 
726 1 1 -0.0257657 0.0199972 0.00692823 0 0 0 8.48342e-08 6.37067e-07 -1.13122e-06 2.60877e-07 -6.74052e-07 1.27e-06 -0.000219739 -6.85715e-05 2.58388e-05 0.004 328.014 3.48627 
230 1 1 -0.00847467 0.024595 0.00973774 0 0 0 7.49902e-07 2.35134e-06 -3.58697e-06 1.21079e-07 5.32384e-07 1.20458e-06 -0.000720969 0.00038136 0.000248636 0.004 462.586 3.55036 
320 1 1 -0.00171267 0.020405 0.00979385 0 0 0 1.22785e-06 2.84859e-06 -2.92152e-06 2.17822e-07 6.63072e-07 9.54097e-08 -0.000519261 -3.47675e-05 -0.000121008 0.004 527.932 1.56431 
7 1 1 0.0129211 0.0224303 0.00918519 0 0 0 1.05464e-06 3.14679e-06 -1.86904e-06 6.07941e-07 2.23404e-06 -1.36747e-06 -0.000255938 -2.62422e-05 1.71822e-05 0.004 687.066 -4.15378 
83 1 1 0.0214164 0.0239651 0.00888427 0 0 0 1.07868e-06 2.91808e-06 -1.8385e-06 8.99149e-07 1.88424e-06 -1.82983e-06 -8.05096e-05 0.000284074 3.62372e-05 0.004 750.989 -4.20328 
747 1 1 -0.0337321 0.0313835 0.00974071 0 0 0 -1.99913e-07 6.37593e-07 -1.25003e-06 3.18042e-07 -7.05885e-07 1.29081e-06 -3.28087e-05 0.000302508 8.97002e-05 0.004 317.873 2.84713 
51 1 1 -0.0226192 0.0329654 0.0070345 0 0 0 1.35749e-07 9.5643e-07 -1.76015e-06 -4.14607e-07 -4.56618e-07 8.68361e-07 9.47834e-05 -0.000119629 -3.09351e-05 0.004 333.461 4.29959 
116 1 1 -0.00940735 0.0391203 0.00809816 0 0 0 2.09966e-07 1.68814e-06 -3.0453e-06 -1.37947e-07 7.07153e-08 8.31928e-07 -0.000136542 -0.000150194 -5.23604e-06 0.004 463.735 3.54524 
205 1 1 -0.000560459 -0.0460776 0.0110171 0 0 0 3.87031e-06 1.98438e-06 3.19423e-06 -7.19562e-08 -4.03207e-07 -9.73902e-07 0.000763414 0.000507708 -0.000796178 0.004 545.824 1.23935 
836 1 1 0.00737985 -0.0454688 0.0106611 0 0 0 2.83481e-06 1.552e-06 1.61609e-06 2.48783e-07 -5.64069e-08 -4.50277e-07 -8.99697e-06 0.000186701 -0.000163686 0.004 612.896 -2.66793 
486 1 1 -0.0156916 -0.0402432 0.0103352 0 0 0 5.39186e-06 1.89379e-06 2.96358e-06 -2.31533e-08 -9.00944e-07 -1.18422e-06 -1.67714e-05 -0.000198371 0.000542736 0.004 384.878 5.63835 
311 1 1 -0.00836811 -0.0439882 0.0106791 0 0 0 4.57136e-06 3.63431e-06 2.69098e-06 3.92009e-07 2.3855e-07 -1.38768e-06 -0.000826605 0.000982727 -0.000434696 0.004 435.634 6.49065 
447 1 1 0.0180551 -0.0423881 0.0118323 0 0 0 2.01956e-06 7.24299e-07 1.80768e-07 9.88588e-08 -1.09841e-07 1.06731e-07 0.000166688 7.66772e-05 -0.00026643 0.004 698.027 -5.36683 
538 1 1 -0.0295743 -0.0353509 0.0149849 0 0 0 3.60001e-06 1.24689e-06 1.90806e-06 7.21776e-07 -3.30449e-07 -3.17766e-07 0.000104782 -1.32303e-05 -0.000162921 0.004 326.331 3.58116 
279 1 1 0.011155 -0.0385417 0.0114153 0 0 0 5.13035e-06 3.16017e-06 2.49342e-06 5.2721e-07 -6.1956e-07 -1.09093e-06 1.59242e-05 0.000522857 -0.000422932 0.004 654.085 -3.9763 
110 1 1 0.0250464 -0.0386627 0.0117241 0 0 0 1.67226e-06 7.73715e-07 8.33549e-07 2.49287e-07 3.70237e-08 -3.8979e-08 0.00021374 -0.000108922 1.77936e-05 0.004 739.129 -5.21735 
188 1 1 -0.0179041 -0.0321007 0.0101564 0 0 0 6.35362e-06 3.49288e-06 5.44746e-06 6.4083e-07 -1.0652e-06 -1.06215e-06 -0.000279933 0.000358734 -0.000357666 0.004 374.862 4.83638 
810 1 1 -0.0102601 -0.034451 0.0102036 0 0 0 6.56507e-06 4.23691e-06 4.95809e-06 3.6394e-07 -1.64805e-06 -1.65807e-06 -0.000258072 0.000217147 -1.58819e-05 0.004 431.898 4.3994 
412 1 1 -0.00316746 -0.0328806 0.0133527 0 0 0 8.54789e-06 6.33744e-06 6.44993e-06 6.88991e-07 -2.57441e-06 -2.87227e-06 -0.000201229 6.18582e-05 -1.25384e-05 0.004 500.697 2.17868 
545 1 1 0.00452052 -0.0343088 0.0121942 0 0 0 7.17746e-06 5.35015e-06 4.69473e-06 5.6608e-07 -1.28142e-06 -1.81824e-06 0.000189189 0.00018008 -0.000100301 0.004 597.296 -1.72801 