ITEM: TIMESTEP
800
ITEM: NUMBER OF ATOMS
891
ITEM: BOX BOUNDS mm mm mm
-0.05 0.05
-0.05 0.05
0 0.15
ITEM: ATOMS id type type x y z ix iy iz vx vy vz fx fy fz omegax omegay omegaz radius f_Temp[0] f_heatFlux[0] 
850 1 1 -0.00132932 -0.0363884 0.0045435 0 0 0 0.177012 -0.116296 -0.142199 0.00140175 -0.0477716 -0.285003 -17.8974 -0.975568 10.0535 0.004 300 0 
838 1 1 0.0267215 -0.0323623 0.00396524 0 0 0 0.0239948 -0.1492 0.0748104 0.101126 0.00837455 -0.119495 0.218323 1.07906 3.08336 0.004 300 0 
861 1 1 -0.00998748 -0.0214262 0.00392604 0 0 0 0.1902 0.0694922 -0.00660867 -0.0134139 -0.00575204 0.153424 6.55685 -1.02708 6.25719 0.004 300 0 
751 1 1 -0.00923073 -0.0104099 0.00426978 0 0 0 -0.146882 0.0503567 -0.0662819 0.0296708 0.0344117 -0.0487685 -3.60034 -4.13787 -5.38262 0.004 300 0 
815 1 1 0.00237728 -0.00352846 0.0039922 0 0 0 0.0817038 0.157507 -0.0201921 -0.000297418 -0.000529847 -0.00888683 -0.870769 -1.19023 1.94616 0.004 300 0 
761 1 1 -0.0242836 -0.00135331 0.00382478 0 0 0 0.0712564 0.0477638 -0.0136649 -0.0821253 0.018089 0.532937 -9.0544 8.43782 6.04224 0.004 300 0 
862 1 1 0.0268704 0.00353883 0.00379649 0 0 0 0.0436382 -0.201955 -0.102798 -0.00949933 0.0411501 0.823606 -6.23442 -2.20374 -13.066 0.004 300 0 
613 1 1 -0.0289608 0.00966962 0.00425784 0 0 0 -0.0664528 0.0609513 0.0721218 0 0 -0.0210391 1.9188 -1.41999 4.15398 0.004 300 0 
420 1 1 -0.0203005 0.00621325 0.00406226 0 0 0 -0.0995995 -0.191998 -0.103031 0 0 -0.0210391 -7.58099 3.66232 0.364177 0.004 300 0 
392 1 1 0.0024597 0.0141014 0.00386994 0 0 0 -0.0581444 -0.0990772 0.0328279 0.0197334 0.00455987 0.351062 13.3578 5.43646 -2.45145 0.004 300 0 
887 1 1 0.00552765 0.0313449 0.00386917 0 0 0 0.2932 0.00122127 0.0416574 -0.0339149 0.00430462 0.365709 -2.11035 -5.0183 2.57893 0.004 300 0 
852 1 1 -0.00172984 0.0412194 0.00454127 0 0 0 -0.0442981 0.177957 -0.00214061 0 0 -0.0210391 3.9743 0.989308 -1.44247e-15 0.004 300 0 
199 1 1 -0.00850307 -0.0397903 0.0045274 0 0 0 -0.0498632 -0.232244 0.0357537 -0.00704477 -0.00340875 -0.0214415 4.30555 -20.8547 1.17343 0.004 300 0 
186 1 1 0.00710172 -0.0378719 0.00545716 0 0 0 0.199579 -0.148099 0.101512 0 0 -0.0210391 8.70025 2.95062 7.54342 0.004 300 0 
251 1 1 -0.0217371 -0.0301555 0.00406071 0 0 0 -0.239229 -0.0523619 -0.136455 0 0 -0.0210391 5.23389 9.44865 -7.88188 0.004 300 0 
682 1 1 -0.0300017 -0.0280345 0.00492987 0 0 0 -0.104202 -0.0613929 0.0771715 -0.0749192 -0.0486217 -0.206354 0.905328 2.10395 -0.891564 0.004 300 0 
776 1 1 0.00534554 -0.0296136 0.0039558 0 0 0 -0.123536 -0.0997032 0.167392 0.000127178 0.000177867 -0.0254123 -3.83023 -10.3957 2.92288 0.004 300 0 
883 1 1 0.0169443 -0.0300776 0.00394684 0 0 0 -0.116861 -0.0821164 -0.205684 0.0204918 -0.00083648 0.203201 -7.97426 9.81338 7.13439 0.004 300 0 
451 1 1 0.0331104 -0.0250125 0.00442521 0 0 0 0.131792 -0.0276969 0.124502 0 0 -0.0210391 -13.8433 18.0939 -0.0923222 0.004 300 0 
512 1 1 0.010927 -0.023124 0.00410197 0 0 0 -0.150503 0.0246751 -0.0388328 0.298877 0.257765 -0.575206 20.8767 -1.17417 2.21655 0.004 300 0 
470 1 1 0.0197009 -0.0211437 0.00428811 0 0 0 0.159941 0.0146384 -0.206863 0.0490648 0.0389638 -0.0900067 -25.0083 2.24661 -6.03299 0.004 300 0 
406 1 1 -0.0346015 -0.0152347 0.00438477 0 0 0 0.00863741 0.168348 0.151437 0 0 -0.0210391 0.320224 -0.0164297 -3.13879e-14 0.004 300 0 
824 1 1 -0.0223469 -0.0183261 0.00430613 0 0 0 0.0809447 -0.159446 -0.200228 -0.15521 0.167822 -0.0921365 5.17262 -19.9838 5.01467 0.004 300 0 
259 1 1 0.000482047 -0.0188338 0.00403752 0 0 0 0.232433 -0.100733 -0.230124 0 0 -0.0210391 -6.73598 -15.5427 -1.15509e-14 0.004 300 0 
734 1 1 0.0274868 -0.0178072 0.0038735 0 0 0 -0.0701721 0.10349 -0.267981 0.0234645 -0.0142235 0.527738 0.139345 25.7364 -7.34549 0.004 300 0 
683 1 1 0.0117017 -0.0137162 0.00382993 0 0 0 0.142067 -0.0100475 0.185729 -0.0230334 -0.000148659 0.439638 2.74218 9.67271 4.06113 0.004 300 0 
224 1 1 -0.0223343 -0.00956896 0.00380231 0 0 0 -0.0103362 -0.129427 0.0465922 0.000814944 0.0352108 0.683366 3.11945 -1.95419 -0.292105 0.004 300 0 
68 1 1 0.0217877 -0.00800282 0.00399296 0 0 0 -0.269158 -0.15683 -0.271493 0.00355264 0.00268295 0.0679991 -14.3878 3.67231 7.84789 0.004 300 0 
10 1 1 0.0360134 -0.00789372 0.00430592 0 0 0 0.218323 0.00183114 0.0230317 -0.0633182 -0.264412 -0.330969 1.35086 -6.34544 0.994735 0.004 300 0 
384 1 1 -0.010927 -0.00237307 0.00454176 0 0 0 0.131608 -0.167464 -0.262455 -0.0197669 0.0307082 0.0441571 -14.4466 -10.4081 -0.308017 0.004 300 0 
306 1 1 0.0114601 -0.00275795 0.00514296 0 0 0 -0.131093 -0.0596296 -0.25136 -0.265346 -0.0907228 -0.874078 -18.0739 31.3705 5.17861 0.004 300 0 
261 1 1 -0.0350632 0.00305564 0.00377781 0 0 0 0.0618838 0.0220874 -0.0374503 -0.0419469 -0.0172063 0.885735 -1.32143 5.28307 -1.06916 0.004 300 0 
145 1 1 -0.00146617 0.00375082 0.00529159 0 0 0 -0.215082 -0.100704 -0.200915 0 0 -0.0210391 -5.92338 11.2607 0.43698 0.004 300 0 
661 1 1 0.0362403 0.00159706 0.00402086 0 0 0 0.110781 0.0257895 -0.414971 -0.026634 0.0862778 -0.057602 8.26681 2.68893 -9.85231 0.004 300 0 
227 1 1 -0.00520959 0.0124263 0.00591395 0 0 0 0 0 0.188299 0 0 -0.0210391 0 0 0 0.004 300 0 
743 1 1 0.0217166 0.0125387 0.00460573 0 0 0 0.00299461 -0.0108132 0.130613 0.0304834 -0.116821 -0.00559 -2.02088 -0.501462 -0.219357 0.004 300 0 
514 1 1 0.0310351 0.0119249 0.00394916 0 0 0 0.0693901 -0.214863 0.0199368 -0.000689217 0.00423902 0.0648545 -1.66851 8.39794 0.313288 0.004 300 0 
101 1 1 -0.035717 0.0186915 0.00472657 0 0 0 -0.00472426 0.0449505 0.0300875 0.0110924 0.0621512 -0.266551 -3.47767 -2.32391 -0.102992 0.004 300 0 
773 1 1 -0.0247822 0.0179532 0.00476166 0 0 0 -0.101409 0.189502 -0.184648 0 0 -0.0210391 2.2404 10.4464 6.63635 0.004 300 0 
331 1 1 -0.0190245 0.0246249 0.00470055 0 0 0 0 0 0.289285 0 0 -0.0210391 0 0 0 0.004 300 0 
846 1 1 -0.0101493 0.0215793 0.00428396 0 0 0 0.122037 0.0116805 -0.0676488 0 0 -0.0210391 3.0053 -4.32298 3.67505 0.004 300 0 
348 1 1 -0.00215479 0.0205963 0.00388772 0 0 0 -0.014946 0.0617105 -0.0260432 0.348474 -0.146071 -0.564485 -2.27378 4.73046 -5.07589 0.004 300 0 
206 1 1 0.0118269 0.020475 0.00434176 0 0 0 0.034481 0.0697394 0.101282 0.112106 0.143096 -0.183083 0.562311 -1.30609 1.2887 0.004 300 0 
495 1 1 0.0200485 0.0202721 0.00380366 0 0 0 0.175009 -0.176436 0.136727 -0.0192549 0.0261552 0.23029 -27.5293 -10.5008 10.2134 0.004 300 0 
246 1 1 -0.0292483 0.0254063 0.00519106 0 0 0 0.128508 0.0452917 -0.326888 0 0 -0.0210391 -5.58691 -12.4648 -2.93834 0.004 300 0 
511 1 1 -0.0073867 0.0300926 0.00386454 0 0 0 0.221909 0.30432 -0.0306001 -0.0148446 -0.0161127 0.41713 -19.8068 3.38244 2.77606 0.004 300 0 
2 1 1 0.020992 0.0284421 0.00535944 0 0 0 -0.0208954 0.117614 -0.0256354 0 0 -0.0210391 -6.30115 -4.06932 9.43689 0.004 300 0 
254 1 1 0.0302594 0.0244928 0.00405484 0 0 0 0.171058 -0.253491 -0.104979 0 0 -0.0210391 -5.03222 11.9191 1.16761 0.004 300 0 
257 1 1 -0.0230992 0.0321817 0.00495914 0 0 0 -0.146293 0.0887245 -0.397253 -0.0017661 -0.00693346 -0.0118483 5.11191 13.8818 4.96143 0.004 300 0 
387 1 1 -0.0108145 0.0390826 0.0048866 0 0 0 0.219822 0.209784 -0.150293 -0.0909299 0.160947 -0.263046 10.5287 -10.0308 0.932424 0.004 300 0 
568 1 1 0.0167819 0.0387437 0.00467577 0 0 0 0.202183 0.153863 0.0855067 0 0 -0.0210391 1.87868 -0.346443 3.90232 0.004 300 0 
873 1 1 -0.0174662 -0.0386368 0.00635154 0 0 0 -0.191905 -0.151424 -0.181361 0 0 -0.0210391 6.81675 -5.685 3.32844 0.004 300 0 
560 1 1 0.0150739 -0.0392048 0.00595389 0 0 0 0.107307 -0.26613 -0.20896 0 0 -0.0210391 11.4304 2.81911 -2.65319 0.004 300 0 
282 1 1 0.0215796 -0.0323456 0.00999699 0 0 0 0.0860922 -0.128099 -0.0128891 -0.426944 -0.305524 0.0476988 8.08724 -4.00593 19.4513 0.004 300 0 
88 1 1 -0.00632916 -0.0293822 0.00372445 0 0 0 -0.0763983 0.0119588 0.0044695 0.0605446 0.000918672 1.18999 -3.1611 -14.458 -2.9473 0.004 300 0 
434 1 1 0.00750782 -0.0257181 0.0106039 0 0 0 -0.0119701 0.173498 -0.223701 -0.201164 -0.171656 0.413349 -13.4539 11.1698 -0.768485 0.004 300 0 
571 1 1 -0.0170751 -0.0235886 0.00689167 0 0 0 0.0977212 -0.0510829 -0.0745146 0.160891 -0.16587 0.0479143 2.75935 1.35617 -9.62062 0.004 300 0 
531 1 1 -0.0134847 -0.0154177 0.00874113 0 0 0 -0.19153 0.023033 -0.0362213 -0.0296708 -0.0344117 0.00669031 2.59382 -10.767 7.33597 0.004 300 0 
229 1 1 0.0195054 -0.0149021 0.00955575 0 0 0 0.0651465 -0.0925017 -0.182368 -0.0917413 -0.232843 -0.196265 -7.93335 13.1723 1.19221 0.004 300 0 
635 1 1 0.0372282 -0.0167265 0.00407571 0 0 0 0.148794 0.23374 -0.381332 0 0 -0.0210391 -8.03735 4.70077 0.890038 0.004 300 0 
94 1 1 -0.0262349 -0.0144222 0.0104303 0 0 0 -0.188347 0.0210697 -0.179129 -0.0449881 0.0734595 -0.0739897 -23.6587 -16.6522 1.38164 0.004 300 0 
725 1 1 -0.0289446 -0.00620286 0.00859742 0 0 0 0.0338457 -0.00850657 -0.347078 0 0 -0.0210391 -0.986303 -21.3027 -5.86344 0.004 300 0 
622 1 1 -0.00200311 -0.00887488 0.00906121 0 0 0 0.0257453 -0.036758 -0.0396346 0 0 -0.0210391 15.2156 -4.18513 -2.17834 0.004 300 0 
791 1 1 0.02829 -0.00920976 0.00889663 0 0 0 0.0789819 -0.0110303 -0.409881 0 0 -0.0210391 0.576728 -7.57233 5.42332 0.004 300 0 
354 1 1 -0.0377487 -0.00543488 0.0038107 0 0 0 -0.0363787 -0.123878 0.291397 0.00684025 0.0232727 0.464102 27.8199 -8.16867 0.153676 0.004 300 0 
690 1 1 0.0242774 -0.00110464 0.0101187 0 0 0 0.100916 0.00456797 -0.0239706 0 0 -0.0210391 -1.65501 -10.9292 4.18726 0.004 300 0 
12 1 1 -0.0278726 0.00323046 0.0095168 0 0 0 0.0902562 0.00734602 0.14574 0.0265989 -0.018484 -0.0645928 -3.34572 6.71749 5.92186 0.004 300 0 
178 1 1 0.0175831 0.00331042 0.00393881 0 0 0 0.142725 -0.0753872 -0.489857 -0.017175 0.00901019 0.36686 2.85735 5.20148 1.9529 0.004 300 0 
677 1 1 -0.0393456 0.0107282 0.00472189 0 0 0 -0.0883306 0.166936 -0.429274 0 0 -0.0210391 -5.52232 -2.89448 -0.103131 0.004 300 0 
654 1 1 -0.0118338 0.00795526 0.00377404 0 0 0 0.0206799 0.000751848 -0.327005 -0.0378493 -0.000289442 1.1225 -0.187118 4.76805 0.366729 0.004 300 0 
160 1 1 0.0100826 0.00683072 0.00578867 0 0 0 0.0886697 -0.0670047 -0.369233 0 0 -0.0210391 8.30978 8.10533 0.598625 0.004 300 0 
712 1 1 0.0230506 0.00685839 0.010416 0 0 0 -0.125057 0.0602317 -0.0831249 0.0196664 0.00876811 -0.156602 -9.00087 -4.88535 -6.06148 0.004 300 0 
624 1 1 0.0335517 0.00622267 0.00989423 0 0 0 0.157994 0.112918 0.0920192 0.0159235 -0.0273137 -0.0594349 -3.99808 13.3659 -10.5619 0.004 300 0 
265 1 1 -0.0249776 0.0127295 0.0109246 0 0 0 0.253311 -0.00381528 -0.112673 0 0 -0.0210391 -12.4516 4.81761 5.913 0.004 300 0 
530 1 1 -0.0160539 0.0151929 0.00447776 0 0 0 0.0390539 -0.0149018 -0.42869 0 0 -0.0210391 -0.884111 -5.56542 2.67119 0.004 300 0 
722 1 1 0.0042207 0.024085 0.00959623 0 0 0 0.0238547 0.028868 0.0544309 0 0 -0.0210391 -8.62735 -4.54134 -5.86928 0.004 300 0 
255 1 1 0.000481461 0.032771 0.00986372 0 0 0 -0.207535 -0.0684191 -0.0644868 0.0154103 -0.00388379 -0.0376003 4.70705 -17.9258 10.4739 0.004 300 0 
719 1 1 0.0128437 0.0282269 0.00740187 0 0 0 -0.197215 -0.205609 -0.187328 0 0 -0.0210391 10.8824 -6.2616 3.09622 0.004 300 0 
157 1 1 0.00924141 0.0391733 0.00857653 0 0 0 -0.182139 0.0617133 -0.231683 0 0 -0.0210391 2.92843 -8.89135 3.90232 0.004 300 0 
400 1 1 -0.0209022 -0.0331167 0.01171 0 0 0 0 0 -0.496077 0 0 -0.0210391 0 0 0 0.004 300 0 
102 1 1 -0.0122131 -0.0323531 0.00885428 0 0 0 0.00921773 0.0100216 -0.486458 0 0 -0.0210391 -0.420613 0.0605316 0.338939 0.004 300 0 
311 1 1 -0.00155205 -0.0349577 0.0122646 0 0 0 0.0149902 -0.0209144 -0.0190672 -0.0664451 -0.0279322 0.172 -5.13345 -12.75 1.22077 0.004 300 0 
410 1 1 0.010217 -0.0348049 0.012395 0 0 0 -0.0428613 -0.102843 -0.412192 0 0 -0.0210391 5.64568 3.3559 1.8986 0.004 300 0 
724 1 1 -0.0268306 -0.0264214 0.0119781 0 0 0 0.00440675 -0.0698867 0.0168207 0.0749192 0.0486217 0.164275 -10.4668 16.0904 4.66306 0.004 300 0 
770 1 1 -0.00445424 -0.0265772 0.0111375 0 0 0 0.0259216 0.0501525 -0.34114 0 0 -0.0210391 -3.01081 2.06469 -0.192982 0.004 300 0 
814 1 1 0.0158121 -0.024733 0.0101632 0 0 0 0.150276 -0.0674628 0.0192288 -0.322701 0.246497 -0.633837 -8.0391 4.68379 17.2956 0.004 300 0 
103 1 1 0.0269293 -0.0266562 0.0104142 0 0 0 -0.063515 0.0566103 -0.0318611 0.313627 0.305093 0.0123505 -4.50174 -12.7184 4.62302 0.004 300 0 
617 1 1 -0.0349389 -0.021811 0.0113448 0 0 0 -0.0098546 -0.192071 -0.0656932 0 0 -0.0210391 14.871 -0.762986 -3.13879e-14 0.004 300 0 
40 1 1 -0.0223604 -0.0200493 0.0144453 0 0 0 0.0144078 0.110949 -0.119114 -0.0581637 0.0523952 -0.15497 -5.87816 11.2741 5.18456 0.004 300 0 
442 1 1 -0.00436647 -0.0167326 0.011046 0 0 0 -0.232433 0.100733 -0.0215633 0 0 -0.0210391 -6.73598 -15.5427 -1.15509e-14 0.004 300 0 
777 1 1 0.0300688 -0.0189881 0.0118506 0 0 0 0.0950361 -0.0287699 0.0755812 -0.466702 -0.205805 -0.214399 9.49216 9.32716 -3.19119 0.004 300 0 
128 1 1 0.00563623 -0.0116248 0.00943383 0 0 0 -0.174919 -0.0128501 -0.0754921 -0.0537916 -0.208508 -0.101041 0.734837 -2.78939 4.87372 0.004 300 0 
353 1 1 -0.0103287 -0.00719256 0.0118187 0 0 0 -0.16364 -0.0492523 -0.420362 0 0 -0.0210391 -3.5499 -4.299 -4.09014 0.004 300 0 
293 1 1 -0.0195709 -0.00366823 0.00974871 0 0 0 0.276633 0.0558756 0.0321698 -0.17351 -0.157196 -0.00966421 -17.306 5.13383 8.45785 0.004 300 0 
378 1 1 0.00766821 -0.00439735 0.0118397 0 0 0 0.00141325 0.0714188 -0.42543 -0.110786 0.128902 0.387635 -2.00188 -0.562183 -1.25597 0.004 300 0 
411 1 1 0.016078 -0.000812597 0.0110161 0 0 0 0.158561 0.115362 -0.0255416 0.429924 0.170328 0.503329 -11.9683 1.38561 7.64293 0.004 300 0 
262 1 1 0.0368965 -0.002996 0.0103838 0 0 0 0.0603344 -0.229047 -0.0485822 0.0740286 0.205447 0.363849 12.2936 -4.28897 -2.47341 0.004 300 0 
402 1 1 -0.0418223 0.000673521 0.00867073 0 0 0 -0.187918 -0.0659912 -0.31106 0 0 -0.0210391 2.93717 -8.22215 0.0518492 0.004 300 0 
704 1 1 -0.0131645 0.000550275 0.0116321 0 0 0 -0.0311507 0.145187 0.00101767 0.651753 -0.289679 -0.129048 -18.3936 -14.8012 -0.844116 0.004 300 0 
234 1 1 0.00396595 0.00615157 0.011196 0 0 0 0.126424 -0.109865 -0.309579 -0.0010977 0.0259699 0.000317748 -13.5806 4.61568 3.34027 0.004 300 0 
273 1 1 -0.016526 0.0135 0.0130722 0 0 0 -0.00734592 -0.171195 -0.39736 -0.17734 -0.0968302 -0.0920478 -7.05223 -15.3092 1.275 0.004 300 0 
718 1 1 0.037844 0.0134923 0.0083916 0 0 0 0 0 -0.496077 0 0 -0.0210391 0 0 0 0.004 300 0 
809 1 1 -0.0358493 0.016431 0.0123025 0 0 0 -0.00960606 0.0485087 -0.223841 0.0448249 0.230426 -0.193195 11.6244 -7.56346 -6.33536 0.004 300 0 
34 1 1 0.00814897 0.0155801 0.00929823 0 0 0 -0.0410018 -0.157645 -0.130542 -0.112106 -0.143096 0.141005 7.43608 -5.66824 -4.82796 0.004 300 0 
104 1 1 0.0302134 0.0175248 0.00980263 0 0 0 0.176775 0.280497 -0.202258 0.0465959 -0.0161082 -0.079358 -15.3675 -13.2742 8.17268 0.004 300 0 
747 1 1 -0.0321998 0.0249029 0.0131514 0 0 0 -0.069161 0.075562 0.00643375 0 0 -0.0210391 -9.89477 -10.4995 -2.66314 0.004 300 0 
230 1 1 -0.00478705 0.0215779 0.0110459 0 0 0 -0.0788535 0.123607 0.121725 -0.34192 0.137891 0.851206 -5.10003 2.23547 -2.98107 0.004 300 0 
316 1 1 0.0192185 0.0229568 0.0111514 0 0 0 -0.0675618 0.101087 -0.25856 -0.0563536 0.0495598 0.069942 -13.902 -17.4328 4.68153 0.004 300 0 
263 1 1 -0.0245294 0.0277394 0.011384 0 0 0 -0.082054 -0.185728 -0.191859 0.0017661 0.00693346 -0.0302299 8.95485 4.46304 5.14087 0.004 300 0 
582 1 1 -0.0112052 0.0265521 0.0107276 0 0 0 -0.214583 -0.101226 -0.0452154 0 0 -0.0210391 10.9073 -11.7439 1.23243 0.004 300 0 
325 1 1 -0.0164883 0.0345461 0.00978283 0 0 0 -0.133487 -0.115234 -0.425258 -0.183975 0.00737556 -0.027409 -6.79541 4.1851 4.41572 0.004 300 0 
116 1 1 -0.00869925 0.0346307 0.0110228 0 0 0 -0.0470887 -0.0221031 -0.319418 0.27574 -0.16542 0.243622 -0.561475 -6.39724 0.103034 0.004 300 0 
21 1 1 0.027187 0.0314901 0.00970127 0 0 0 0.0268419 0.280906 -0.0713896 0 0 -0.0210391 -14.3834 -4.52181 4.95194 0.004 300 0 
205 1 1 0.00391202 -0.0406028 0.0154008 0 0 0 0 0 -0.496077 0 0 -0.0210391 0 0 0 0.004 300 0 
485 1 1 -0.00851132 -0.0387507 0.0128707 0 0 0 -0.181201 -0.101441 -0.45975 -0.0129134 -0.00708368 -0.0191703 2.99533 -5.67013 -0.872727 0.004 300 0 
447 1 1 0.0174156 -0.0380222 0.0158551 0 0 0 0.0896047 -0.189903 -0.369502 0 0 -0.0210391 4.08832 -0.793583 5.95883 0.004 300 0 
248 1 1 0.00334504 -0.0298667 0.0158721 0 0 0 -0.0460016 0.0333838 -0.24395 -0.00753526 -0.00163765 0.174013 8.71742 0.48417 3.6447 0.004 300 0 
183 1 1 0.0188264 -0.0276161 0.0167179 0 0 0 0.175914 0.0193852 -0.279515 0.26846 -0.283736 0.654911 14.513 1.86409 -4.61347 0.004 300 0 
891 1 1 0.00249944 -0.0218766 0.0160112 0 0 0 0 0 -0.496077 0 0 -0.0210391 0 0 0 0.004 300 0 
870 1 1 0.0111604 -0.0192342 0.0139248 0 0 0 -0.0678198 0.257429 -0.248111 0.012396 -0.0982289 -0.0767502 -9.67602 -4.4126 9.78194 0.004 300 0 
418 1 1 0.03684 -0.0159238 0.0142578 0 0 0 0.0847366 0.0371317 -0.459311 0.466702 0.205805 0.172321 -1.39839 2.66528 0.530971 0.004 300 0 
837 1 1 -0.0281895 -0.0106619 0.0173368 0 0 0 -0.2207 0.0120562 -0.31066 -0.0744421 -0.0513293 -0.213686 -17.3158 10.7344 -10.1742 0.004 300 0 
589 1 1 0.0296927 -0.0118105 0.0168808 0 0 0 0.0533428 -0.106321 -0.139847 0 0 -0.0210391 4.36936 8.82213 1.96352 0.004 300 0 
87 1 1 -0.0362566 -0.00730529 0.0128076 0 0 0 -0.240065 -0.0341062 -0.323768 0 0 -0.0210391 2.69784 -8.85117 2.00786 0.004 300 0 
332 1 1 0.0215438 -0.00873594 0.0139217 0 0 0 -0.0375995 0.296683 -0.127962 0.0917413 0.232843 0.154187 -8.35148 -10.8431 7.23664 0.004 300 0 
666 1 1 -0.00217958 -0.00212779 0.0141888 0 0 0 0 0 -0.496077 0 0 -0.0210391 0 0 0 0.004 300 0 
523 1 1 -0.032107 0.00601807 0.0156974 0 0 0 -0.0289478 -0.0280574 -0.291145 -0.0265989 0.018484 0.0225146 -3.90549 -1.30575 0.303082 0.004 300 0 
16 1 1 -0.0187888 0.0058486 0.0126437 0 0 0 -0.110023 0.105373 -0.465345 -0.419307 0.342542 0.0796302 -3.11364 -3.49314 0.863412 0.004 300 0 
492 1 1 -0.00525816 0.00614016 0.0132667 0 0 0 0 0 -0.496077 0 0 -0.0210391 0 0 0 0.004 300 0 
135 1 1 0.0221308 0.00602021 0.0182418 0 0 0 -0.0377678 -0.0520275 -0.124014 -0.0196664 -0.00876811 0.114524 -8.50805 -4.65977 -1.51771 0.004 300 0 
191 1 1 0.0317473 0.00994593 0.0167425 0 0 0 0.083003 0.163222 -0.176545 0 0 -0.0210391 -10.7595 -15.2914 4.16532 0.004 300 0 
632 1 1 -0.028993 0.0137516 0.017876 0 0 0 -0.108985 -0.0192804 -0.123966 0 0 -0.0210391 -1.84391 -18.2384 4.45237 0.004 300 0 
792 1 1 0.0039599 0.0121285 0.0165095 0 0 0 0.0142406 0.195841 -0.295147 0.0010977 -0.0259699 -0.042396 -6.99566 -3.8602 4.25756 0.004 300 0 
484 1 1 0.0151068 0.0103117 0.0139024 0 0 0 0 0 -0.496077 0 0 -0.0210391 0 0 0 0.004 300 0 
637 1 1 -0.0108261 0.0183604 0.0154884 0 0 0 -0.0990942 -0.0213481 -0.264171 0.189645 0.14635 0.0514974 5.81559 -9.34113 6.07496 0.004 300 0 
803 1 1 0.0252382 0.0188267 0.0158325 0 0 0 -0.111404 -0.0176155 -0.19695 -0.0465959 0.0161082 0.0372797 2.81848 -12.429 5.57726 0.004 300 0 
786 1 1 0.00955981 0.0216963 0.0170196 0 0 0 0 0 -0.496077 0 0 -0.0210391 0 0 0 0.004 300 0 
151 1 1 0.0035322 0.034823 0.017278 0 0 0 0.0395421 0.0757664 -0.173051 0 0 -0.0210391 -9.51443 4.93293 2.53139 0.004 300 0 
729 1 1 0.010971 0.0318703 0.0169589 0 0 0 0.076221 -0.0275203 -0.490222 0 0 -0.0210391 0.890122 2.30659 -0.745711 0.004 300 0 
26 1 1 0.0183799 0.0308906 0.0131388 0 0 0 0 0 -0.496077 0 0 -0.0210391 0 0 0 0.004 300 0 
231 1 1 -0.0042381 -0.0398154 0.0207578 0 0 0 0 0 -0.496077 0 0 -0.0210391 0 0 0 0.004 300 0 
836 1 1 0.0118149 -0.0385376 0.0216019 0 0 0 -0.188697 -0.0385492 -0.319954 -0.0451094 -0.0013322 -0.18673 -5.16115 -4.09336 -5.31315 0.004 300 0 
810 1 1 -0.00963536 -0.0315207 0.0208654 0 0 0 0 0 -0.496077 0 0 -0.0210391 0 0 0 0.004 300 0 
538 1 1 -0.0240989 -0.0296197 0.0192947 0 0 0 0 0 -0.496077 0 0 -0.0210391 0 0 0 0.004 300 0 
79 1 1 0.030227 -0.0256357 0.0187294 0 0 0 0 0 -0.496077 0 0 -0.0210391 0 0 0 0.004 300 0 
769 1 1 -0.0287257 -0.0223587 0.0186239 0 0 0 -0.00585739 -0.00203281 -0.491775 -0.0745804 -0.0259999 0.0331977 0.101912 -0.207526 0.0406981 0.004 300 0 
544 1 1 -0.0165081 -0.0235248 0.0184447 0 0 0 0.0313576 -0.0174424 -0.472171 0.177732 -0.0998548 0.111605 0.859748 0.906961 -0.465836 0.004 300 0 
29 1 1 -0.0059132 -0.0231135 0.0207199 0 0 0 0 0 -0.496077 0 0 -0.0210391 0 0 0 0.004 300 0 
673 1 1 -0.0359913 -0.0151401 0.0180993 0 0 0 0 0 -0.496077 0 0 -0.0210391 0 0 0 0.004 300 0 
19 1 1 -0.0114391 -0.0170304 0.0175107 0 0 0 0 0 -0.496077 0 0 -0.0210391 0 0 0 0.004 300 0 
309 1 1 0.019314 -0.0197078 0.0198731 0 0 0 0 0 -0.496077 0 0 -0.0210391 0 0 0 0.004 300 0 
291 1 1 -0.00278543 -0.0146635 0.0188189 0 0 0 0 0 -0.496077 0 0 -0.0210391 0 0 0 0.004 300 0 
390 1 1 0.01067 -0.0122938 0.017717 0 0 0 -0.00898808 0.329597 -0.305828 -0.012396 0.0982289 0.0346719 -0.700033 -3.88963 6.57003 0.004 300 0 
437 1 1 -0.0198512 -0.008425 0.0188464 0 0 0 0 0 -0.496077 0 0 -0.0210391 0 0 0 0.004 300 0 
391 1 1 -0.00752136 -0.00607218 0.0194946 0 0 0 0.0237535 0.0139855 -0.385724 0 0 -0.0210391 0.177415 3.55181 -0.486612 0.004 300 0 
840 1 1 0.0378534 -0.00778777 0.0185153 0 0 0 0 0 -0.496077 0 0 -0.0210391 0 0 0 0.004 300 0 
615 1 1 -0.0264059 -0.00421304 0.0214887 0 0 0 0.0510559 0.244166 -0.32099 0.0307316 0.139804 0.0721011 -5.89097 5.10565 -5.43333 0.004 300 0 
31 1 1 0.0110469 -0.00406607 0.019615 0 0 0 0 0 -0.496077 0 0 -0.0210391 0 0 0 0.004 300 0 
706 1 1 0.0247823 -0.00335382 0.0209492 0 0 0 0 0 -0.496077 0 0 -0.0210391 0 0 0 0.004 300 0 
493 1 1 0.0103941 0.00422341 0.0216844 0 0 0 0 0 -0.496077 0 0 -0.0210391 0 0 0 0.004 300 0 
342 1 1 0.03342 0.000672957 0.0176998 0 0 0 0 0 -0.496077 0 0 -0.0210391 0 0 0 0.004 300 0 
636 1 1 -0.0245359 0.00551923 0.0199166 0 0 0 0 0 -0.496077 0 0 -0.0210391 0 0 0 0.004 300 0 
303 1 1 0.0382612 0.0057335 0.0218915 0 0 0 0 0 -0.496077 0 0 -0.0210391 0 0 0 0.004 300 0 
476 1 1 -0.0370529 0.0119051 0.0185077 0 0 0 -0.212066 -0.171148 -0.0685475 -0.0559173 -0.292577 0.396629 2.74983 -15.9747 -4.46366 0.004 300 0 
320 1 1 -0.00384403 0.013466 0.0211511 0 0 0 0 0 -0.496077 0 0 -0.0210391 0 0 0 0.004 300 0 
684 1 1 -0.0327249 0.0200862 0.0215823 0 0 0 -0.0929644 0.13657 -0.375572 0 0 -0.0210391 -5.70853 -2.12819 -2.01151 0.004 300 0 
726 1 1 -0.0213841 0.0164619 0.020533 0 0 0 0.0194258 0.0643774 -0.291668 -0.0643624 -0.131013 -0.435272 -4.01403 -0.60018 -2.42575 0.004 300 0 
143 1 1 0.0182077 0.0168182 0.0220039 0 0 0 0 0 -0.496077 0 0 -0.0210391 0 0 0 0.004 300 0 
863 1 1 0.0354881 0.0182371 0.0190118 0 0 0 0 0 -0.496077 0 0 -0.0210391 0 0 0 0.004 300 0 
105 1 1 0.000424388 0.0226816 0.0176417 0 0 0 0 0 -0.496077 0 0 -0.0210391 0 0 0 0.004 300 0 
317 1 1 0.0201406 0.0244615 0.0187834 0 0 0 -0.104967 0.233368 0.0238938 0.0260182 0.0662116 0.252192 -8.85829 -4.56505 -2.99938 0.004 300 0 
366 1 1 0.030321 0.0245292 0.0197828 0 0 0 0 0 -0.496077 0 0 -0.0210391 0 0 0 0.004 300 0 
344 1 1 -0.0262161 0.0253431 0.0195296 0 0 0 0 0 -0.496077 0 0 -0.0210391 0 0 0 0.004 300 0 
51 1 1 -0.0161595 0.0266336 0.0182398 0 0 0 0 0 -0.496077 0 0 -0.0210391 0 0 0 0.004 300 0 
750 1 1 -0.0046248 0.03103 0.0179105 0 0 0 0 0 -0.496077 0 0 -0.0210391 0 0 0 0.004 300 0 
433 1 1 0.0234403 0.0311051 0.0219449 0 0 0 0 0 -0.496077 0 0 -0.0210391 0 0 0 0.004 300 0 
595 1 1 -0.0164698 0.0358325 0.0176139 0 0 0 -0.00734488 0.0409864 -0.0953716 -0.000834686 -0.00290226 -0.0373231 -11.5696 2.93328 -0.530527 0.004 300 0 
507 1 1 -0.00765521 0.0388749 0.018354 0 0 0 0 0 -0.496077 0 0 -0.0210391 0 0 0 0.004 300 0 
188 1 1 -0.0163988 -0.0345353 0.0259263 0 0 0 0 0 -0.496077 0 0 -0.0210391 0 0 0 0.004 300 0 
545 1 1 0.00372187 -0.0312487 0.0237602 0 0 0 0.010686 -0.0330197 -0.227296 0 0 -0.0210391 4.70486 1.09534 -0.0782663 0.004 300 0 
556 1 1 0.0172761 -0.0319553 0.0234417 0 0 0 -0.0274104 -0.125275 -0.278264 0 0 -0.0210391 3.50292 -6.50965 -3.3031 0.004 300 0 
243 1 1 0.00826139 -0.0208268 0.0233213 0 0 0 0 0 -0.496077 0 0 -0.0210391 0 0 0 0.004 300 0 
266 1 1 -0.0254171 -0.0157469 0.0227196 0 0 0 0.0374984 -0.0754084 -0.405903 0.0437105 -0.0884748 0.0784676 2.83358 2.3267 0.782102 0.004 300 0 
374 1 1 0.0282033 -0.0164304 0.0245592 0 0 0 0 0 -0.496077 0 0 -0.0210391 0 0 0 0.004 300 0 
775 1 1 -0.00453102 -0.0128265 0.0265789 0 0 0 0 0 -0.496077 0 0 -0.0210391 0 0 0 0.004 300 0 
783 1 1 0.00526849 -0.0124946 0.0238125 0 0 0 0 0 -0.496077 0 0 -0.0210391 0 0 0 0.004 300 0 
222 1 1 -0.0349681 -0.00868185 0.0240742 0 0 0 0 0 -0.496077 0 0 -0.0210391 0 0 0 0.004 300 0 
482 1 1 -0.0148121 -0.00683437 0.024965 0 0 0 0 0 -0.496077 0 0 -0.0210391 0 0 0 0.004 300 0 
194 1 1 0.0134296 -0.0081677 0.0261788 0 0 0 0 0 -0.496077 0 0 -0.0210391 0 0 0 0.004 300 0 
735 1 1 -0.0040752 -0.00191314 0.026788 0 0 0 0 0 -0.496077 0 0 -0.0210391 0 0 0 0.004 300 0 
90 1 1 0.00462106 -0.0037713 0.0266443 0 0 0 0 0 -0.496077 0 0 -0.0210391 0 0 0 0.004 300 0 
338 1 1 0.0347855 -0.000735105 0.0255317 0 0 0 0 0 -0.496077 0 0 -0.0210391 0 0 0 0.004 300 0 
717 1 1 -0.0379234 0.000716003 0.0234917 0 0 0 0 0 -0.496077 0 0 -0.0210391 0 0 0 0.004 300 0 
305 1 1 -0.0314061 0.00783274 0.0251467 0 0 0 0 0 -0.496077 0 0 -0.0210391 0 0 0 0.004 300 0 
292 1 1 -0.0151593 0.00731858 0.0226511 0 0 0 0 0 -0.496077 0 0 -0.0210391 0 0 0 0.004 300 0 
454 1 1 -0.000738606 0.00624764 0.0238529 0 0 0 0 0 -0.496077 0 0 -0.0210391 0 0 0 0.004 300 0 
460 1 1 0.0274964 0.00862691 0.0239549 0 0 0 -0.107335 -0.0101136 -0.234267 -0.0262439 0.0115099 -0.0657481 5.92822 -6.50048 2.13566 0.004 300 0 
7 1 1 0.0109088 0.014007 0.0267403 0 0 0 0 0 -0.496077 0 0 -0.0210391 0 0 0 0.004 300 0 
697 1 1 0.0063148 0.022789 0.0243363 0 0 0 0 0 -0.496077 0 0 -0.0210391 0 0 0 0.004 300 0 
842 1 1 0.0117343 0.029156 0.0245011 0 0 0 0 0 -0.496077 0 0 -0.0210391 0 0 0 0.004 300 0 
368 1 1 -0.0179529 0.0358711 0.0266335 0 0 0 0 0 -0.496077 0 0 -0.0210391 0 0 0 0.004 300 0 
805 1 1 -0.0014649 0.0394856 0.0236095 0 0 0 0 0 -0.496077 0 0 -0.0210391 0 0 0 0.004 300 0 
375 1 1 0.00825408 0.0362995 0.0266341 0 0 0 0 0 -0.496077 0 0 -0.0210391 0 0 0 0.004 300 0 
604 1 1 0.00565779 -0.0395152 0.0293753 0 0 0 0 0 -0.496077 0 0 -0.0210391 0 0 0 0.004 300 0 
457 1 1 0.0142707 -0.0384335 0.0291262 0 0 0 0.00830282 0.000211942 -0.464639 0.0451094 0.0013322 0.144652 -0.105891 1.00178 0.0212173 0.004 300 0 
606 1 1 -0.00494983 -0.0318416 0.0306493 0 0 0 0 0 -0.496077 0 0 -0.0210391 0 0 0 0.004 300 0 
100 1 1 0.0113238 -0.0308617 0.0299849 0 0 0 0 0 -0.496077 0 0 -0.0210391 0 0 0 0.004 300 0 
110 1 1 0.0257499 -0.0317559 0.0302552 0 0 0 0 0 -0.496077 0 0 -0.0210391 0 0 0 0.004 300 0 
415 1 1 -0.0223904 -0.0256568 0.0274316 0 0 0 0 0 -0.496077 0 0 -0.0210391 0 0 0 0.004 300 0 
446 1 1 -0.0124731 -0.0257424 0.0300562 0 0 0 0 0 -0.496077 0 0 -0.0210391 0 0 0 0.004 300 0 
5 1 1 -0.0305082 -0.02133 0.029151 0 0 0 0 0 -0.496077 0 0 -0.0210391 0 0 0 0.004 300 0 
655 1 1 0.000480596 -0.0226151 0.0306683 0 0 0 0 0 -0.496077 0 0 -0.0210391 0 0 0 0.004 300 0 
749 1 1 0.0157207 -0.021496 0.0281264 0 0 0 0 0 -0.496077 0 0 -0.0210391 0 0 0 0.004 300 0 
24 1 1 0.0282083 -0.0232256 0.0294735 0 0 0 0 0 -0.496077 0 0 -0.0210391 0 0 0 0.004 300 0 
445 1 1 -0.0110911 -0.0175065 0.0302094 0 0 0 0 0 -0.496077 0 0 -0.0210391 0 0 0 0.004 300 0 
112 1 1 -0.0215971 -0.0117017 0.0319551 0 0 0 0 0 -0.496077 0 0 -0.0210391 0 0 0 0.004 300 0 
737 1 1 0.0200909 -0.012098 0.0307947 0 0 0 0 0 -0.496077 0 0 -0.0210391 0 0 0 0.004 300 0 
343 1 1 0.0388171 -0.0105774 0.0277084 0 0 0 0 0 -0.496077 0 0 -0.0210391 0 0 0 0.004 300 0 
334 1 1 0.0289268 -0.00785167 0.0287123 0 0 0 0 0 -0.496077 0 0 -0.0210391 0 0 0 0.004 300 0 
875 1 1 -0.0137086 -0.000140542 0.0302349 0 0 0 0 0 -0.496077 0 0 -0.0210391 0 0 0 0.004 300 0 
370 1 1 -0.0221854 0.000287797 0.028734 0 0 0 0 0 -0.496077 0 0 -0.0210391 0 0 0 0.004 300 0 
310 1 1 0.0253823 0.000973216 0.028441 0 0 0 0 0 -0.496077 0 0 -0.0210391 0 0 0 0.004 300 0 
43 1 1 -0.00871204 0.00674581 0.0284212 0 0 0 0 0 -0.496077 0 0 -0.0210391 0 0 0 0.004 300 0 
210 1 1 0.0317765 0.00687973 0.0304602 0 0 0 0.000997929 -0.000438421 -0.494372 0.0262439 -0.0115099 0.0236699 0.00963951 0.0615085 0.0101702 0.004 300 0 
651 1 1 -0.0366054 0.013145 0.0308035 0 0 0 0 0 -0.496077 0 0 -0.0210391 0 0 0 0.004 300 0 
600 1 1 -0.016621 0.0114047 0.0315559 0 0 0 0 0 -0.496077 0 0 -0.0210391 0 0 0 0.004 300 0 
184 1 1 -0.0199806 0.018506 0.0279691 0 0 0 0.0117046 0.0245014 -0.419395 0.0643624 0.131013 0.393194 1.99147 1.59261 -0.81276 0.004 300 0 
522 1 1 -0.0110783 0.0174717 0.0288039 0 0 0 0 0 -0.496077 0 0 -0.0210391 0 0 0 0.004 300 0 
245 1 1 0.0272736 0.0173594 0.0315598 0 0 0 0 0 -0.496077 0 0 -0.0210391 0 0 0 0.004 300 0 
543 1 1 0.0350169 0.0187301 0.0275012 0 0 0 0 0 -0.496077 0 0 -0.0210391 0 0 0 0.004 300 0 
441 1 1 -0.0324654 0.0239512 0.0301244 0 0 0 0 0 -0.496077 0 0 -0.0210391 0 0 0 0.004 300 0 
23 1 1 -0.00561588 0.0239512 0.0289716 0 0 0 0 0 -0.496077 0 0 -0.0210391 0 0 0 0.004 300 0 
83 1 1 0.0150861 0.0221519 0.0300219 0 0 0 0 0 -0.496077 0 0 -0.0210391 0 0 0 0.004 300 0 
22 1 1 0.00336463 0.0294185 0.0288984 0 0 0 0 0 -0.496077 0 0 -0.0210391 0 0 0 0.004 300 0 
644 1 1 -0.00925679 0.0312124 0.0273529 0 0 0 0 0 -0.496077 0 0 -0.0210391 0 0 0 0.004 300 0 
708 1 1 -0.0116874 0.039261 0.0319564 0 0 0 0 0 -0.496077 0 0 -0.0210391 0 0 0 0.004 300 0 
486 1 1 -0.00937337 -0.0382406 0.0349983 0 0 0 0 0 -0.496077 0 0 -0.0210391 0 0 0 0.004 300 0 
656 1 1 -0.0171001 -0.0319431 0.0368539 0 0 0 0 0 -0.496077 0 0 -0.0210391 0 0 0 0.004 300 0 
369 1 1 -0.0232847 -0.0261652 0.0354298 0 0 0 0 0 -0.496077 0 0 -0.0210391 0 0 0 0.004 300 0 
30 1 1 0.00856125 -0.0210406 0.036062 0 0 0 0 0 -0.496077 0 0 -0.0210391 0 0 0 0.004 300 0 
739 1 1 -0.00525434 -0.0197661 0.0356908 0 0 0 0 0 -0.496077 0 0 -0.0210391 0 0 0 0.004 300 0 
605 1 1 0.0261417 -0.0158571 0.0346246 0 0 0 0 0 -0.496077 0 0 -0.0210391 0 0 0 0.004 300 0 
356 1 1 -0.0348024 -0.0133189 0.0325291 0 0 0 0 0 -0.496077 0 0 -0.0210391 0 0 0 0.004 300 0 
73 1 1 0.000759759 -0.0107378 0.0336464 0 0 0 0 0 -0.496077 0 0 -0.0210391 0 0 0 0.004 300 0 
388 1 1 -0.0292329 -0.00743913 0.0345034 0 0 0 0 0 -0.496077 0 0 -0.0210391 0 0 0 0.004 300 0 