ITEM: TIMESTEP
23200
ITEM: NUMBER OF ATOMS
891
ITEM: BOX BOUNDS mm mm mm
-0.05 0.05
-0.05 0.05
0 0.15
ITEM: ATOMS id type type x y z ix iy iz vx vy vz fx fy fz omegax omegay omegaz radius f_Temp[0] f_heatFlux[0] 
199 1 1 -0.00444375 -0.0458158 0.00397433 0 0 0 -9.21223e-06 1.28691e-06 4.58555e-06 -2.74466e-06 -1.84808e-05 5.35724e-06 0.00111535 0.000129273 0.00263162 0.004 405.281 13.1535 
873 1 1 -0.0201484 -0.0414789 0.00390159 0 0 0 1.13176e-06 9.85631e-07 3.7347e-07 -2.44813e-06 -7.27208e-06 4.5183e-06 0.00020268 0.000413293 -0.000345653 0.004 309.477 5.71497 
485 1 1 -0.0126796 -0.0442534 0.00397263 0 0 0 -4.69005e-06 6.22326e-06 2.45981e-06 -3.33107e-06 -6.52443e-06 5.45461e-06 -0.00118505 -0.00181659 0.00202966 0.004 319.874 9.44621 
850 1 1 0.00335643 -0.0441759 0.00394113 0 0 0 -1.07403e-05 -2.8525e-06 3.91987e-06 4.11046e-08 -8.41283e-06 2.65085e-06 -0.000112411 -0.00223862 -0.00456112 0.004 596.161 -19.9717 
186 1 1 0.0114401 -0.0445988 0.00392825 0 0 0 -7.89013e-06 -1.58374e-06 7.17194e-07 -7.30657e-07 2.17021e-06 2.68522e-06 -5.51737e-05 -0.00197763 0.000334356 0.004 753.697 -15.4271 
560 1 1 0.018969 -0.0420006 0.00394674 0 0 0 -2.74614e-06 -2.55964e-06 2.59919e-07 -8.75249e-06 2.05041e-07 6.32267e-06 0.000512769 0.000849614 0.000397727 0.004 780.339 -9.41595 
102 1 1 -0.0147501 -0.0357331 0.00386308 0 0 0 -1.75881e-07 6.11651e-06 -2.19727e-07 -5.92099e-06 -1.17154e-05 4.0901e-06 -0.000903098 -0.000156109 0.00124505 0.004 329.973 10.932 
88 1 1 -0.00730758 -0.0383837 0.00392724 0 0 0 -2.88885e-06 4.26658e-06 6.84644e-06 -6.09645e-06 -1.47961e-05 5.99675e-06 -0.00102016 -0.00178594 -0.00256731 0.004 380.694 15.486 
776 1 1 0.0052039 -0.0354368 0.00395021 0 0 0 -4.93608e-06 -1.63977e-06 -1.73604e-06 -1.09955e-05 -1.54155e-05 -4.57244e-06 0.000189906 0.0012147 -0.00135761 0.004 639.681 -6.95886 
410 1 1 0.0130237 -0.0368132 0.00392569 0 0 0 -9.09979e-06 -4.07477e-06 -1.22828e-06 -8.15194e-06 2.88044e-06 6.40317e-06 -0.00118887 -0.00171354 0.00014111 0.004 746.58 -13.6473 
282 1 1 0.0258761 -0.0381319 0.00388525 0 0 0 7.61914e-07 -6.31893e-06 7.64988e-08 -1.46884e-06 1.22608e-05 4.24244e-06 0.00135622 -0.000291457 -0.000683957 0.004 795.698 -3.14504 
682 1 1 -0.0302016 -0.0348779 0.00393465 0 0 0 -5.19656e-07 3.98005e-06 -2.96861e-08 -3.43412e-06 -6.19635e-07 -4.71771e-07 -0.000228492 -0.00015968 0.000665865 0.004 301.442 1.23177 
251 1 1 -0.0224189 -0.0338476 0.00392332 0 0 0 2.77037e-07 4.37052e-06 -7.46381e-07 -6.90472e-06 -1.07534e-05 -1.58138e-06 -0.000332341 4.52229e-05 -0.000511548 0.004 307.512 4.59726 
770 1 1 -0.00204748 -0.0321408 0.00393962 0 0 0 -3.22693e-06 2.48229e-06 4.04934e-06 -1.72999e-05 -2.81353e-05 1.91023e-06 -0.0017075 -0.000763578 0.000256383 0.004 514.527 12.8206 
883 1 1 0.018166 -0.0307536 0.00390019 0 0 0 -6.1717e-06 -1.47285e-05 -2.78318e-06 -1.61807e-05 2.18906e-05 4.19638e-08 0.00273681 -0.000346172 -0.00256893 0.004 779.372 -8.52156 
838 1 1 0.0320336 -0.033109 0.0039607 0 0 0 4.98803e-06 -6.77029e-06 -6.88875e-06 -3.06015e-06 1.1912e-05 2.55249e-06 -0.00211373 0.00211034 -0.000550196 0.004 799.003 -0.941563 
617 1 1 -0.037252 -0.0271215 0.00391646 0 0 0 -5.52978e-07 4.05189e-06 -7.21332e-07 -1.33475e-06 2.91136e-06 -1.55692e-06 -0.000426473 0.000128653 0.000367595 0.004 300.105 0.135891 
824 1 1 -0.0292998 -0.0270299 0.00392983 0 0 0 -3.05067e-06 8.93203e-06 3.5504e-07 -3.46923e-06 1.8674e-06 -1.83353e-06 -0.00111761 -0.000757327 0.000265931 0.004 300.597 0.610257 
571 1 1 -0.0202614 -0.0262215 0.00393282 0 0 0 -6.11022e-07 9.22791e-06 3.94543e-07 -1.16477e-05 -1.20937e-05 -7.25693e-07 -0.00077976 0.000634274 0.00167494 0.004 306.048 3.97723 
861 1 1 -0.00959287 -0.0297305 0.00389695 0 0 0 4.16055e-07 6.16164e-06 -5.64927e-07 -1.86616e-05 -1.25496e-05 3.42624e-06 -0.000809457 0.000113426 -0.00136401 0.004 368.414 17.5256 
434 1 1 0.0103456 -0.0293807 0.0039374 0 0 0 -4.28081e-06 -8.16579e-06 -3.18207e-06 -1.68562e-05 -3.03641e-07 -3.30251e-06 0.00136843 -0.000369399 -0.00037416 0.004 725.519 -14.6141 
103 1 1 0.0311547 -0.0252347 0.00394359 0 0 0 -8.76969e-06 -1.96982e-05 -1.34049e-05 -1.27798e-05 7.59031e-06 -1.46585e-07 0.00191385 -0.0031495 0.00637773 0.004 799.088 -0.800598 
769 1 1 -0.041344 -0.0202818 0.0039823 0 0 0 -1.15037e-06 2.60513e-06 -7.82408e-07 -4.75866e-07 1.92342e-06 2.35383e-06 -0.000153728 6.38786e-05 0.0005057 0.004 300.026 0.0381574 
94 1 1 -0.0333713 -0.0202163 0.00394369 0 0 0 -1.53682e-06 7.5852e-06 -2.10539e-06 -1.96334e-06 2.75653e-06 1.74221e-06 -0.000535692 5.75461e-05 0.000375424 0.004 300.261 0.28522 
40 1 1 -0.025401 -0.0201464 0.00391761 0 0 0 -1.29634e-06 9.43534e-06 -1.87396e-07 -3.36684e-06 2.0211e-06 -2.80572e-06 -0.000719458 -0.000750643 -0.00109764 0.004 301.771 1.45904 
19 1 1 -0.00865061 -0.0218805 0.00393964 0 0 0 7.01808e-06 3.55651e-06 -3.09041e-06 -3.02863e-05 -1.11792e-05 -4.39887e-06 -0.000364919 0.00168983 -0.00104957 0.004 365.94 18.2119 
442 1 1 -0.000436863 -0.02185 0.00393581 0 0 0 6.13885e-06 -1.79296e-06 -5.40144e-06 -2.96773e-05 -1.41701e-05 -3.21362e-06 -0.000326041 0.00150694 -0.000875991 0.004 511.012 17.9587 
259 1 1 0.007532 -0.0220002 0.00392511 0 0 0 1.62121e-06 -8.27007e-06 -3.68805e-06 -1.96877e-05 -9.22175e-06 -9.97884e-06 0.000852344 -0.00123577 -0.00178983 0.004 694.651 -11.5359 
512 1 1 0.0153883 -0.0232356 0.00397834 0 0 0 8.77183e-07 -1.22245e-05 -2.59052e-06 -1.32611e-05 2.08406e-05 -8.13848e-06 0.00114869 0.0013135 6.41976e-05 0.004 769.379 -9.61582 
470 1 1 0.0232617 -0.024359 0.00390811 0 0 0 -2.92082e-06 -2.12046e-05 -7.4974e-06 -1.03325e-05 1.96403e-05 -6.8775e-07 0.00344368 0.000807131 -0.00356384 0.004 794.506 -3.26885 
451 1 1 0.0390293 -0.0244875 0.00392047 0 0 0 1.54722e-06 -3.49307e-07 4.26529e-08 -3.4177e-06 1.42202e-05 5.21264e-06 0.000733156 0.00032471 1.96169e-05 0.004 799.843 -0.181489 
531 1 1 -0.0164595 -0.0192005 0.00396124 0 0 0 -8.7591e-07 9.6325e-06 -2.0403e-06 -6.33305e-06 -1.29874e-05 -3.41444e-06 -0.00128121 -0.00127928 -0.00211586 0.004 309.658 5.01358 
229 1 1 0.020206 -0.0169137 0.00386872 0 0 0 5.95281e-07 -1.22106e-05 -3.94728e-06 -7.31109e-06 1.13141e-05 -1.4002e-05 0.00259209 0.000938376 0.000795257 0.004 790.284 -5.28304 
734 1 1 0.0280522 -0.0179421 0.00394394 0 0 0 -1.06836e-05 -3.55961e-05 -5.31265e-06 -1.39431e-05 1.57814e-06 -1.62881e-05 0.00663968 -0.00377989 -0.00929638 0.004 798.452 -1.21827 
635 1 1 0.0425981 -0.0174495 0.00392191 0 0 0 4.39289e-06 3.84766e-06 3.74652e-06 -6.51901e-07 2.32023e-05 -2.4537e-07 -0.00090859 0.000999253 -0.000806898 0.004 799.981 -0.0267326 
87 1 1 -0.0448224 -0.0104639 0.0039142 0 0 0 -6.54342e-07 1.28889e-06 3.03357e-07 -8.3775e-07 4.49257e-06 1.46303e-06 -0.000252491 -0.000170438 0.000279642 0.004 300.004 0.00703027 
406 1 1 -0.0373951 -0.013391 0.00396014 0 0 0 -8.67353e-07 3.89221e-06 -6.59287e-07 -3.76543e-08 6.69623e-06 9.30211e-06 8.41181e-06 0.000276748 -0.000172347 0.004 300.035 0.0474766 
224 1 1 -0.023058 -0.012602 0.0038796 0 0 0 7.55282e-06 8.78219e-06 1.28405e-06 -1.61664e-05 1.16932e-05 6.03699e-07 -0.0007588 0.00108154 -0.000713731 0.004 305.215 3.18077 
751 1 1 -0.0102996 -0.0141546 0.00396943 0 0 0 8.18094e-06 4.42552e-06 2.07716e-06 -2.31944e-05 -6.2912e-06 -8.10569e-06 0.000491839 0.000578489 -0.000131318 0.004 352.896 13.4104 
622 1 1 -0.00273377 -0.011741 0.00388521 0 0 0 1.12801e-05 -3.12453e-06 3.44059e-06 -2.91187e-05 -6.52857e-06 -1.39309e-05 0.000650785 0.00149874 -0.0019634 0.004 475.881 6.79759 
128 1 1 0.00951077 -0.0106851 0.00388456 0 0 0 8.11932e-06 -1.20776e-05 6.77972e-06 -1.85086e-05 2.50018e-06 -1.6714e-05 0.001761 0.00160506 -0.000449051 0.004 738.103 -14.0451 
68 1 1 0.0262809 -0.010211 0.00395438 0 0 0 9.27981e-06 -2.18627e-05 4.01179e-06 -7.01716e-06 1.5407e-05 -3.03403e-05 -0.000160777 -0.000475513 0.00559354 0.004 799.096 -0.834445 
791 1 1 0.0340945 -0.0118532 0.00392798 0 0 0 1.10226e-05 -4.73028e-05 8.24874e-06 -1.42026e-06 -3.30517e-06 -5.86532e-06 0.00937335 0.00225945 -0.0247511 0.004 799.909 -0.11152 
354 1 1 -0.0380748 -0.00550399 0.0039204 0 0 0 6.34534e-07 2.4107e-06 -7.02765e-07 4.37258e-06 5.09721e-06 8.20571e-06 -0.000284772 0.000171312 1.04979e-05 0.004 300.036 0.0478148 
725 1 1 -0.03049 -0.00800534 0.00392519 0 0 0 2.44215e-06 6.41889e-06 1.22181e-07 -1.08414e-06 4.5747e-06 9.66845e-07 -0.000809851 6.30327e-05 1.94918e-05 0.004 300.231 0.255481 
353 1 1 -0.0161287 -0.00879817 0.00391142 0 0 0 8.50539e-06 8.78244e-06 -1.53059e-07 -1.43708e-05 8.40989e-06 -2.73144e-06 -0.00221575 -0.000198094 -0.000601112 0.004 322.039 8.77315 
391 1 1 -0.00857652 -0.00639754 0.00391356 0 0 0 1.32658e-05 1.5508e-06 3.55454e-06 -2.52113e-05 -2.19402e-06 -8.86074e-06 0.000171579 0.00141336 -0.00095815 0.004 376.342 15.8943 
683 1 1 0.0173534 -0.00945632 0.00390984 0 0 0 5.06332e-06 -1.56838e-05 4.29617e-06 -1.87467e-05 -4.40268e-06 -1.16366e-05 0.00286553 0.000229879 -0.00054504 0.004 786.04 -6.535 
690 1 1 0.0385537 -0.00520146 0.0039002 0 0 0 7.80774e-06 -2.28266e-05 1.54049e-05 -1.29327e-05 2.53686e-05 6.46129e-07 0.00621873 0.00235284 0.0053046 0.004 799.973 -0.0352247 
10 1 1 0.0449635 -0.0099089 0.00397399 0 0 0 8.91378e-06 -9.87405e-07 -5.14874e-06 -1.73457e-06 1.91892e-05 -5.06342e-06 -0.00184962 0.000833617 -0.000549318 0.004 799.996 -0.00644514 
402 1 1 -0.0460169 -0.00264173 0.00392182 0 0 0 -3.11778e-07 4.69682e-07 -2.26744e-07 1.93211e-06 3.97942e-07 3.36411e-06 1.70265e-05 -8.08238e-05 -5.06899e-05 0.004 300.01 0.0143968 
761 1 1 -0.0294744 -0.000168384 0.00392561 0 0 0 5.26688e-06 4.66692e-06 -4.49387e-07 -1.76014e-06 8.38373e-06 6.00958e-06 -0.000530299 5.43733e-05 8.45015e-05 0.004 300.853 0.762506 
293 1 1 -0.0229324 -0.00466879 0.00395949 0 0 0 1.03648e-05 8.23755e-06 7.83476e-07 -9.15756e-06 1.25849e-05 1.61281e-06 -0.000454795 0.00203118 0.000294224 0.004 304.017 2.73702 
384 1 1 -0.0147567 -0.000846296 0.0039815 0 0 0 -0.000883549 0.000686052 8.9127e-11 -1.01839e-14 7.90732e-15 -8.96675e-11 -0.171911 -0.221399 0.233621 0.004 300 0 
378 1 1 0.00130621 -0.00490409 0.00392905 0 0 0 1.1313e-05 -6.82359e-06 1.64031e-06 -3.65381e-05 -1.73097e-05 -1.11835e-05 -0.00021403 0.000729536 0.00196948 0.004 589.131 -14.9934 
390 1 1 0.0103707 -0.00276536 0.00396886 0 0 0 6.43059e-06 -1.94581e-05 9.68243e-06 -1.16538e-05 5.37804e-06 -1.85629e-05 0.00124947 -0.000883491 0.00189185 0.004 769.784 -12.7356 
411 1 1 0.0223604 -0.00329289 0.00397625 0 0 0 1.44512e-05 -2.92135e-05 1.5272e-05 -1.88843e-05 7.55219e-06 -2.27258e-05 0.00443453 0.00500694 -0.00369688 0.004 797.515 -1.83255 
342 1 1 0.0307349 -0.00361669 0.00397529 0 0 0 3.33315e-07 -3.47468e-05 1.48083e-06 -2.94869e-05 1.62467e-05 -1.56009e-05 0.00301309 -0.00126775 -0.00373032 0.004 799.899 -0.123121 
262 1 1 0.0460221 -0.00206506 0.00395832 0 0 0 8.64716e-06 -8.71737e-06 -1.50024e-06 2.71096e-06 1.60093e-05 -2.5864e-06 0.00327384 1.86829e-05 0.000244128 0.004 799.997 -0.00570216 
261 1 1 -0.0398214 0.00224598 0.00393475 0 0 0 1.2637e-06 1.19427e-06 -2.04903e-06 9.99021e-08 2.35511e-06 5.46959e-06 -0.000266518 0.000452149 -2.71838e-05 0.004 300.072 0.0834644 
666 1 1 -0.00454667 0.000451366 0.00395604 0 0 0 1.83695e-05 -5.8108e-06 -1.62736e-07 -2.89021e-05 3.47652e-06 -7.92948e-06 5.6239e-08 0.00307562 -0.00167235 0.004 438.517 14.0421 
815 1 1 0.00434379 0.00243557 0.00392709 0 0 0 1.84151e-05 -1.52762e-05 7.18887e-06 -3.22427e-05 -1.22879e-05 6.70581e-06 0.00317204 0.000773182 -0.00613256 0.004 683.214 -21.0331 
306 1 1 0.0163701 0.00247661 0.00395809 0 0 0 2.05152e-05 -3.02065e-05 1.60971e-05 -3.95098e-05 1.66724e-05 -1.96e-05 0.00596135 0.00605718 -0.00418606 0.004 793.334 -4.27707 
178 1 1 0.0241042 0.00444173 0.00386113 0 0 0 1.46861e-05 -3.44535e-05 1.88672e-05 -3.22112e-05 1.374e-05 -2.30459e-05 0.00237382 0.000558813 0.000415443 0.004 797.998 -1.61199 
862 1 1 0.0320657 0.00423365 0.00393096 0 0 0 9.50788e-06 -4.5122e-05 2.43063e-05 -2.24474e-05 1.5058e-05 -2.14857e-05 0.00998617 0.00231513 -0.00010883 0.004 799.747 -0.273404 
661 1 1 0.0398756 0.00291469 0.00394678 0 0 0 4.59269e-06 -2.62693e-05 6.08585e-06 -3.02373e-06 1.01917e-05 6.45747e-06 0.00487746 0.000211029 0.00493558 0.004 799.972 -0.0381819 
677 1 1 -0.0453782 0.00788539 0.00393641 0 0 0 -1.02473e-07 2.18246e-07 -1.25293e-06 1.03205e-07 -2.61978e-07 1.56445e-06 1.87822e-05 5.867e-05 0.000211969 0.004 300.009 0.0132597 
12 1 1 -0.0333161 0.00671956 0.00393696 0 0 0 3.3605e-06 1.373e-06 -1.98409e-06 -4.04151e-06 6.48173e-06 3.09542e-06 0.000176514 -0.000326844 0.000188135 0.004 300.476 0.4372 
420 1 1 -0.0253999 0.00664832 0.00392686 0 0 0 9.07407e-06 3.79014e-06 2.37404e-09 -9.63929e-06 1.01799e-05 2.29442e-06 -8.59913e-05 0.00105352 0.000511081 0.004 303.174 2.10364 
654 1 1 -0.0175134 0.00720939 0.00387211 0 0 0 1.4024e-05 5.0633e-06 -2.40202e-07 -1.46396e-05 1.55435e-05 3.88834e-08 -0.00106527 0.00146628 -0.000546568 0.004 315.599 6.75021 
145 1 1 -0.00454399 0.00836531 0.0038631 0 0 0 2.248e-05 -7.11781e-06 -2.67038e-06 -2.14644e-05 5.85509e-06 -1.63614e-06 0.00123129 0.00322728 -0.00122388 0.004 431.048 14.5125 
624 1 1 0.0451449 0.00890653 0.00390655 0 0 0 -4.13921e-06 -1.732e-05 1.1249e-05 4.13796e-07 1.45613e-05 2.50315e-06 0.00281743 -0.000183589 -0.00280656 0.004 799.992 -0.0120269 
613 1 1 -0.0372991 0.0135339 0.00384344 0 0 0 9.75076e-07 -8.97702e-08 -2.70915e-06 -2.79448e-06 2.53463e-06 1.74684e-06 -1.51293e-05 0.00019374 0.000350229 0.004 300.098 0.114041 
265 1 1 -0.0293062 0.0135429 0.00396373 0 0 0 4.3034e-06 1.37406e-06 2.84616e-07 -4.89683e-06 7.24639e-06 -1.48009e-06 -0.000302843 -0.000521743 -0.000168351 0.004 300.834 0.758355 
273 1 1 -0.0213694 0.0141274 0.00392941 0 0 0 9.8285e-06 3.5289e-06 2.82986e-07 -9.58007e-06 8.60074e-06 -3.71135e-06 0.000501656 0.00151888 0.00180517 0.004 303.929 2.73714 
492 1 1 -0.0114499 0.0123712 0.0039808 0 0 0 1.25307e-05 1.58692e-06 -3.15462e-06 -9.00963e-06 1.14467e-05 -4.23297e-06 -0.00107898 1.85325e-05 0.00136533 0.004 333.466 12.6191 
234 1 1 0.00585293 0.0103929 0.0039289 0 0 0 2.10036e-05 -1.92619e-05 2.77017e-06 -2.01786e-05 -8.68615e-06 -5.32461e-06 0.00159168 0.0022985 -0.00175907 0.004 650.16 -14.4203 
160 1 1 0.0142843 0.0106356 0.00390957 0 0 0 1.66287e-05 -2.98326e-05 8.15675e-06 -1.79053e-05 -2.71258e-06 -1.05447e-05 0.00469797 0.00193046 -0.00122386 0.004 770.571 -11.3851 
484 1 1 0.0220893 0.0120738 0.0039012 0 0 0 1.27324e-05 -3.51026e-05 1.36112e-05 -8.33371e-06 -1.68895e-06 -1.58041e-05 0.00417569 0.00255624 0.00122303 0.004 794.305 -3.50192 
743 1 1 0.0300184 0.0126217 0.00398127 0 0 0 7.0063e-06 -2.67065e-05 3.47586e-06 -8.10652e-06 -7.46861e-05 -1.40661e-05 0.00316024 -0.000253662 -0.000335737 0.004 799.008 -0.880098 
514 1 1 0.0379537 0.0130186 0.00386904 0 0 0 4.57963e-06 -2.85337e-05 1.00965e-05 3.35534e-06 -1.0874e-05 2.94459e-06 0.00593919 0.000254586 0.000843811 0.004 799.869 -0.149205 
530 1 1 -0.0159002 0.0198647 0.00392797 0 0 0 4.55082e-06 1.12332e-05 -1.48898e-06 -4.08896e-07 5.4303e-06 -1.41799e-07 -0.00159024 0.0006967 0.00111136 0.004 311.041 6.42238 
227 1 1 -0.00736499 0.0192083 0.00396596 0 0 0 6.11983e-06 -4.77352e-07 -7.94249e-06 3.71773e-06 2.79539e-06 3.98217e-06 -0.00111504 -0.00095872 -0.000201754 0.004 373.608 18.2465 
392 1 1 -0.000498575 0.0151513 0.00394446 0 0 0 1.72145e-05 -9.52001e-06 -1.12644e-06 -9.56369e-06 -3.84506e-07 1.63232e-06 0.000809433 0.00123879 0.00176975 0.004 495.694 10.8445 
493 1 1 0.00985843 0.0172531 0.00394647 0 0 0 1.55774e-05 -1.95658e-05 3.17258e-06 -8.42303e-06 -1.34889e-05 3.85437e-06 0.000944372 -0.000368723 -0.000248866 0.004 715.661 -16.2364 
34 1 1 0.0176357 0.0187852 0.00394099 0 0 0 1.66668e-05 -2.83871e-05 8.91555e-06 -2.13787e-06 -2.07382e-05 1.67558e-06 0.00679357 0.00175388 -0.00121462 0.004 776.649 -9.61267 
206 1 1 0.0255398 0.0192353 0.00396992 0 0 0 9.94046e-06 -2.77717e-05 3.28737e-06 4.0044e-06 -2.3244e-05 6.27404e-06 0.000528467 0.00252903 0.000527913 0.004 795.657 -2.83012 
104 1 1 0.0334175 0.0199346 0.00389648 0 0 0 4.78814e-07 -3.1288e-05 4.69392e-06 4.67006e-06 -5.95846e-06 4.95482e-06 0.00628601 -0.00200049 -0.00108826 0.004 799.307 -0.632159 
809 1 1 -0.0412058 0.0204949 0.00395498 0 0 0 -4.96968e-07 1.99156e-07 -1.17411e-06 -1.13902e-06 3.19237e-07 3.67353e-07 0.000122442 2.84203e-05 0.000211476 0.004 300.013 0.020525 
773 1 1 -0.0331523 0.0204531 0.00393522 0 0 0 1.68985e-07 1.3309e-06 -3.85282e-06 -2.19794e-06 3.00896e-06 2.27783e-06 -1.31632e-05 0.000105316 0.000995215 0.004 300.25 0.279528 
792 1 1 0.0034768 0.0219735 0.00392106 0 0 0 8.53609e-06 -9.54972e-06 -6.71403e-07 2.34701e-06 -5.79573e-06 5.50268e-06 0.00103083 0.000404179 -0.000308504 0.004 608.781 -7.4754 
718 1 1 0.0413199 0.0203659 0.00392988 0 0 0 -8.41703e-08 -1.89634e-05 4.04562e-06 1.68926e-06 6.9878e-06 2.5611e-06 0.0033668 0.000804403 0.00258296 0.004 799.901 -0.11829 
101 1 1 -0.0371146 0.0272995 0.00390402 0 0 0 -2.60791e-06 1.68729e-06 -2.89693e-06 -6.50641e-07 9.57497e-07 2.70194e-07 -0.00049915 -0.000210556 0.000120416 0.004 300.085 0.110815 
246 1 1 -0.0290567 0.0272807 0.00398271 0 0 0 1.65584e-06 2.3449e-06 -3.82832e-06 -1.69499e-06 1.54934e-06 1.44709e-06 0.000415594 0.00140281 -0.00179733 0.004 300.516 0.47884 
331 1 1 -0.0212281 0.0257798 0.0039002 0 0 0 -2.64046e-06 5.27716e-06 -1.14706e-05 4.45486e-08 4.4997e-06 3.51019e-06 -0.00168398 -0.000217707 0.00218634 0.004 305.036 3.17271 
846 1 1 -0.0134708 0.0274168 0.00397482 0 0 0 -6.54886e-06 1.6405e-05 -1.18633e-05 4.70804e-06 -6.75144e-07 3.35189e-06 -0.00314613 -0.00270501 0.000392057 0.004 327.327 10.4106 
348 1 1 -0.00329915 0.0260611 0.00393376 0 0 0 4.20902e-06 -1.39802e-06 -8.21408e-06 5.19206e-06 -2.99031e-06 4.58959e-06 0.000235675 -0.000908692 0.00102231 0.004 469.386 10.4937 
786 1 1 0.00840354 0.0281551 0.00389686 0 0 0 7.11241e-06 -1.14313e-05 5.64525e-07 4.39441e-06 -1.28451e-05 6.7642e-06 0.00158846 0.000980887 -0.000776734 0.004 699.617 -17.339 
316 1 1 0.0162833 0.0272928 0.0039063 0 0 0 8.78965e-06 -2.39491e-05 3.27231e-06 4.00718e-06 -1.37736e-05 3.90818e-06 0.00439307 0.00123026 -0.000633167 0.004 775.451 -9.54517 
495 1 1 0.0288861 0.0264618 0.00396715 0 0 0 1.57795e-06 -2.49806e-05 4.95363e-06 1.71613e-06 -1.74392e-05 7.45381e-06 0.00228391 -0.00169687 0.000450279 0.004 798.867 -1.03245 
863 1 1 0.0367263 0.0277633 0.00392936 0 0 0 1.78443e-06 -1.40969e-05 2.68221e-06 3.05033e-06 -6.80674e-06 3.07487e-06 0.0029285 0.00106506 0.00163131 0.004 799.853 -0.17688 
511 1 1 -0.00761834 0.0327131 0.00388555 0 0 0 -1.27727e-06 6.14178e-06 -9.21231e-06 9.64481e-06 -3.84257e-06 5.20266e-06 -0.000768517 -0.000635438 -0.00199922 0.004 406.997 18.3297 
722 1 1 0.00164033 0.0322874 0.00396637 0 0 0 3.70556e-06 -2.57525e-06 -3.06558e-06 7.95682e-06 -5.06913e-06 5.14135e-06 -0.000360142 -0.000589791 -0.000958163 0.004 595.428 -12.6775 
2 1 1 0.0229311 0.031696 0.00396244 0 0 0 3.22436e-06 -1.83158e-05 2.6189e-06 3.31756e-06 -1.15411e-05 4.24431e-06 0.00231726 0.000114723 -0.000319218 0.004 795.059 -3.42503 
254 1 1 0.030531 0.0343896 0.0039815 0 0 0 -0.000818632 0.000870518 9.65399e-12 -1.05529e-15 1.12262e-15 -5.25573e-11 -0.218134 -0.205132 -0.0703935 0.004 800 0 
257 1 1 -0.0296322 0.0352231 0.00395614 0 0 0 1.70331e-06 5.27808e-06 -4.01683e-06 -1.48655e-06 -4.59229e-08 7.14156e-08 -0.000994917 0.000877882 0.00193628 0.004 300.34 0.368657 
582 1 1 -0.0157655 0.0356205 0.00393207 0 0 0 2.40546e-06 1.16496e-06 -1.03022e-05 -4.52399e-07 1.20941e-05 2.49774e-06 0.000646194 0.000986086 -0.00092234 0.004 305.755 3.68436 
255 1 1 -0.00267125 0.038932 0.0039115 0 0 0 4.3939e-06 1.93156e-06 -8.39854e-06 9.11059e-06 -2.40162e-06 9.24714e-07 -0.000348666 0.000542764 -0.000139475 0.004 485.685 8.3011 
887 1 1 0.00812084 0.0373183 0.0039289 0 0 0 3.62788e-06 -5.40872e-06 -4.32169e-06 6.4582e-06 -8.93472e-06 2.52145e-06 0.00126432 7.99461e-05 -0.000605066 0.004 749.407 -16.1105 
719 1 1 0.0157853 0.0351951 0.00398364 0 0 0 4.04102e-06 -1.15755e-05 4.48804e-06 2.63601e-06 -8.31695e-06 2.93829e-06 -0.00160583 -0.000480568 0.000270661 0.004 786.289 -7.66952 
21 1 1 0.0234243 0.0396338 0.00391497 0 0 0 2.11923e-06 -6.12982e-06 5.90614e-07 1.53364e-06 -7.4156e-06 7.00959e-08 0.000192586 0.000378746 0.000520312 0.004 795.999 -2.83343 
325 1 1 -0.0222387 0.0402984 0.00393952 0 0 0 1.53884e-06 3.14243e-06 -2.51486e-06 -2.4791e-06 1.73292e-06 -1.37436e-06 -0.000237647 0.000169758 0.000606839 0.004 302.993 2.1921 
595 1 1 -0.014931 0.0435392 0.00398256 0 0 0 3.03778e-06 3.90107e-07 -2.74395e-06 -3.05238e-06 2.5798e-06 -2.01722e-06 0.000664991 0.000485838 0.000509031 0.004 320.796 7.55432 
568 1 1 0.0162912 0.0430934 0.0039263 0 0 0 1.73851e-06 -4.12637e-06 -1.13502e-06 1.5328e-06 -4.76695e-06 -1.05805e-07 0.000306057 -0.000202609 -0.00015254 0.004 780.819 -8.6204 
387 1 1 -0.00719691 0.045487 0.00389934 0 0 0 2.54883e-06 2.86079e-06 -4.62641e-06 3.10009e-06 -2.00521e-06 -2.20956e-07 0.000141748 0.000451988 0.000240617 0.004 417.032 15.1736 
852 1 1 0.000758883 0.0460615 0.00397618 0 0 0 2.03164e-06 4.00753e-08 -3.64362e-06 2.45183e-06 -1.16324e-06 -6.03455e-07 0.000945732 -0.000355363 7.40151e-05 0.004 588.728 -15.4342 
157 1 1 0.00865317 0.0452492 0.00389825 0 0 0 2.63057e-06 -8.96748e-07 -2.69339e-06 1.39676e-06 -3.33382e-06 7.52714e-07 0.000109725 0.000223044 0.000223646 0.004 726.959 -17.031 
400 1 1 -0.024752 -0.0387964 0.00974417 0 0 0 2.05735e-06 3.90014e-06 -1.8071e-06 -1.05764e-05 -2.01651e-06 -1.76384e-06 -0.000611193 6.62838e-05 -3.22345e-05 0.004 302.154 1.85438 
606 1 1 -0.000653862 -0.0387267 0.00813887 0 0 0 4.34826e-06 -1.54041e-06 1.05768e-05 -1.81646e-05 -1.759e-05 3.86776e-06 0.00213446 0.00360508 0.000381472 0.004 525.182 8.53379 
724 1 1 -0.0339143 -0.0311598 0.009848 0 0 0 1.63116e-06 6.86073e-06 -2.72465e-06 -8.11827e-06 4.0623e-06 -1.17466e-06 -0.000996751 0.00117979 0.000157092 0.004 300.334 0.359667 
183 1 1 0.0251947 -0.0311656 0.00751467 0 0 0 -8.88138e-06 -1.63581e-05 -6.88739e-06 -2.09439e-05 2.81685e-05 1.07837e-05 -0.00180546 -0.0019163 0.00370826 0.004 795.919 -2.72591 
544 1 1 -0.0140216 -0.0253029 0.00874959 0 0 0 1.0705e-06 1.53612e-05 -4.09704e-06 -2.57963e-05 -1.96859e-05 3.28323e-07 0.000364878 -0.000599685 -0.000589531 0.004 328.656 11.1489 
29 1 1 -0.00450612 -0.0263794 0.0090072 0 0 0 7.59647e-06 3.09052e-06 1.16746e-06 -4.31546e-05 -1.90297e-05 -4.68143e-07 -0.000525818 -0.00044172 -4.30827e-05 0.004 413.438 20.9158 
248 1 1 0.00349913 -0.0278427 0.00763302 0 0 0 1.15491e-06 -9.83895e-06 1.04391e-05 -3.09393e-05 -2.0926e-05 -8.83852e-06 0.00519159 0.00187854 -0.00215491 0.004 639.204 -15.1417 
79 1 1 0.0358371 -0.0289489 0.00959643 0 0 0 -3.40512e-06 -8.32589e-06 -1.671e-05 -1.32502e-05 1.57072e-05 -3.10184e-06 0.00237435 -0.0068388 0.00235535 0.004 799.637 -0.399378 
291 1 1 -0.00458852 -0.0173976 0.00909521 0 0 0 1.44991e-05 -7.88961e-06 -7.01457e-06 -4.35136e-05 -6.98316e-06 -2.41551e-05 0.00268118 0.000318209 0.00055819 0.004 466.873 8.30658 
891 1 1 0.00373502 -0.0155281 0.00632502 0 0 0 9.54445e-06 -1.13593e-05 1.73101e-06 -2.25516e-05 -1.35814e-05 -6.80438e-06 0.0028993 -0.000644201 0.000258049 0.004 622.45 -8.70151 
870 1 1 0.0138325 -0.0156364 0.00831013 0 0 0 8.72342e-06 -2.64573e-05 -6.24267e-07 -2.47319e-05 9.07777e-06 -3.55619e-05 0.00400925 -0.000817702 -0.00123313 0.004 768.852 -11.993 
777 1 1 0.0349691 -0.018778 0.00770997 0 0 0 -2.25746e-05 -4.84385e-05 -4.37239e-06 -2.30363e-05 3.57663e-06 -1.17069e-05 -0.00196078 0.00280929 0.0134943 0.004 799.795 -0.216208 
837 1 1 -0.0294489 -0.0146728 0.00803325 0 0 0 2.34911e-06 1.24795e-05 1.04049e-06 -8.11391e-06 1.07405e-05 4.75017e-07 4.79223e-05 -0.000403947 -0.000243904 0.004 300.944 0.805676 
445 1 1 -0.0181357 -0.0138495 0.00995269 0 0 0 2.19234e-05 2.27075e-05 -2.88759e-06 -4.18239e-05 1.0566e-05 2.0162e-06 -5.6749e-05 0.00155535 0.00386456 0.004 314.037 6.37164 
783 1 1 0.00485922 -0.00860669 0.00993764 0 0 0 1.71613e-05 -8.9116e-06 1.37349e-05 -5.92671e-05 -3.82312e-06 -2.94326e-05 -0.00145048 0.000582435 -0.00243427 0.004 661.676 -16.8062 
615 1 1 -0.0350998 -0.000758799 0.00955178 0 0 0 2.29387e-06 3.90138e-06 -2.95047e-06 4.9808e-07 1.50481e-05 1.32124e-05 -0.000583734 -0.000335227 -8.23081e-05 0.004 300.205 0.216714 
476 1 1 -0.0459521 0.00262137 0.00988977 0 0 0 -7.97443e-07 7.63657e-07 -1.74301e-06 1.69424e-06 -5.31466e-07 5.0873e-06 -0.00042911 7.82558e-05 -6.71142e-05 0.004 300.004 0.00579743 
16 1 1 -0.0210455 0.00169425 0.00830922 0 0 0 1.49614e-05 1.32528e-05 3.06713e-06 -1.67084e-05 2.16141e-05 7.92197e-06 -0.00116681 -0.00129693 0.000286688 0.004 306.678 3.96938 
303 1 1 0.0459492 0.00350463 0.00962653 0 0 0 5.14831e-06 -3.19725e-05 1.86005e-05 3.62331e-06 9.36607e-06 3.64989e-06 0.000131946 0.00413865 0.0079356 0.004 799.994 -0.00884505 
523 1 1 -0.0389797 0.00803075 0.0093286 0 0 0 6.67082e-07 1.84383e-06 -4.78431e-06 -1.33937e-06 3.91007e-06 7.58248e-06 -0.000171487 -0.000595584 -0.000407039 0.004 300.065 0.0773701 
704 1 1 -0.0107978 0.00519209 0.00743858 0 0 0 2.60859e-05 2.68652e-06 -3.53172e-06 -3.1979e-05 1.88824e-05 -5.36051e-06 8.24103e-05 0.00027521 -0.000466806 0.004 354.134 12.7938 
454 1 1 0.00101197 0.00715921 0.00933952 0 0 0 3.38602e-05 -1.73279e-05 4.14055e-08 -4.31741e-05 6.48419e-06 2.58851e-06 -5.50716e-05 -0.00119966 -0.000615619 0.004 556.505 -1.70943 
31 1 1 0.0102166 0.00547582 0.00832585 0 0 0 3.68026e-05 -3.65866e-05 1.91339e-05 -3.9144e-05 2.55438e-06 -7.73479e-06 -0.00253259 0.00168517 0.00138663 0.004 731.616 -16.0093 
135 1 1 0.0188887 0.00749162 0.00960783 0 0 0 1.20998e-05 -6.26058e-05 2.73262e-05 -2.59662e-05 1.89283e-05 -2.72256e-05 0.00203927 -0.008444 0.00234771 0.004 795.405 -3.1911 
712 1 1 0.0281139 0.00743262 0.00998854 0 0 0 4.1943e-06 -8.57159e-05 5.30727e-05 5.8142e-06 3.17692e-05 -4.44777e-05 0.00623403 -0.00691707 -0.00676048 0.004 799.155 -0.792201 
210 1 1 0.0394934 0.00814604 0.00989875 0 0 0 -5.24792e-06 -4.36118e-05 2.07667e-05 1.60375e-05 2.07445e-05 9.84794e-06 -0.00107444 -0.00220525 -0.00273712 0.004 799.967 -0.0451856 
651 1 1 -0.0437987 0.0143398 0.00823566 0 0 0 -8.37739e-07 -1.4949e-07 -2.54071e-06 -1.58542e-06 5.5823e-07 1.79173e-06 -2.15396e-05 -0.000153308 -0.000180722 0.004 300.015 0.0217343 
621 1 1 0.0437182 0.0147846 0.00900763 0 0 0 1.72353e-06 -2.28037e-05 1.04748e-05 4.77666e-06 1.04062e-05 1.56271e-06 -0.00296644 0.000155739 0.00336519 0.004 799.942 -0.0703211 
726 1 1 -0.0257657 0.0199971 0.00692826 0 0 0 7.58041e-07 5.02342e-06 -4.97684e-06 -1.47103e-06 6.68552e-06 2.6804e-06 -0.00265901 -0.00143939 0.00030054 0.004 301.371 1.18457 
230 1 1 -0.00847462 0.0245949 0.00973778 0 0 0 3.97425e-06 2.18532e-05 -2.94813e-05 7.34722e-06 3.34748e-06 9.81064e-06 -0.00406324 -0.00201007 -0.00651426 0.004 388.89 17.5173 
320 1 1 -0.00171261 0.0204049 0.00979387 0 0 0 9.57851e-06 -9.26958e-06 -1.02977e-05 5.1144e-06 9.15508e-06 9.68751e-06 -0.00324976 -0.00266383 -0.000725676 0.004 474.936 18.0806 
7 1 1 0.0129211 0.0224303 0.00918518 0 0 0 1.52022e-05 -3.4204e-05 5.94499e-06 5.98303e-06 -2.49991e-05 1.06414e-05 -0.002144 -0.00318058 0.000346343 0.004 755.533 -13.1108 
83 1 1 0.0214165 0.0239651 0.00888425 0 0 0 1.51422e-05 -5.07002e-05 8.0046e-06 4.95747e-07 -1.77408e-05 4.65474e-06 0.00279185 -0.00179512 0.0046495 0.004 793.867 -3.75362 
747 1 1 -0.0337321 0.0313835 0.00974074 0 0 0 -2.83264e-06 6.10468e-06 -1.00652e-05 -9.5704e-07 1.31863e-06 4.30499e-07 0.000221915 0.00198657 0.000615054 0.004 300.434 0.448329 
51 1 1 -0.0226191 0.0329654 0.00703453 0 0 0 -1.59628e-06 6.77806e-06 -1.2679e-05 -8.40609e-07 4.16071e-06 2.78965e-06 0.00208683 6.86952e-06 -0.00209587 0.004 301.487 1.3042 
116 1 1 -0.00940735 0.0391203 0.00809822 0 0 0 2.48129e-06 8.91668e-06 -1.47739e-05 8.13895e-06 -1.76519e-07 7.59884e-07 0.000409709 -0.00104604 -0.000424909 0.004 385.308 19.815 
205 1 1 -0.000560417 -0.0460776 0.0110171 0 0 0 -1.56342e-06 -1.79569e-06 2.62214e-08 -6.51647e-06 -2.28425e-06 1.39226e-05 -0.000362503 -0.00524233 -0.000731487 0.004 475.18 25.329 
836 1 1 0.0073799 -0.0454689 0.0106611 0 0 0 -1.21124e-05 1.34086e-06 7.67409e-06 -7.44431e-06 2.17981e-06 3.80804e-07 -0.00132062 0.00205262 0.00237892 0.004 669.656 -15.0496 
486 1 1 -0.0156916 -0.0402432 0.0103351 0 0 0 1.00065e-05 5.6997e-06 1.85889e-06 -9.32889e-06 -1.52673e-06 1.78569e-05 -0.000175428 0.000820913 0.0030686 0.004 316.175 7.97942 
311 1 1 -0.00836805 -0.0439882 0.010679 0 0 0 -1.2585e-05 9.23435e-06 1.49662e-05 1.98911e-06 -8.8131e-06 1.40013e-05 -0.00120423 -0.000968407 -0.00832534 0.004 337.039 14.5444 
447 1 1 0.0180551 -0.0423881 0.0118322 0 0 0 -8.96723e-06 -8.25196e-06 -7.58727e-06 -2.11161e-06 1.33039e-05 9.70683e-06 -7.7283e-05 -0.00284574 0.00127183 0.004 773.56 -10.7949 
538 1 1 -0.0295743 -0.035351 0.0149849 0 0 0 2.61699e-06 9.84995e-06 -3.76913e-06 -1.32202e-05 3.36245e-06 -5.23951e-06 -0.000753765 0.000318344 2.15843e-05 0.004 301.16 0.993245 
279 1 1 0.0111551 -0.0385418 0.0114152 0 0 0 -9.2807e-06 -3.10829e-06 8.22651e-06 -2.51834e-05 1.04083e-05 1.47944e-05 0.00268877 0.00416916 -0.00298931 0.004 723.848 -15.0097 
110 1 1 0.0250464 -0.0386628 0.0117241 0 0 0 -7.30118e-06 -8.06041e-06 -1.78661e-06 -7.2967e-06 9.82418e-06 -1.07058e-05 -0.000927859 -0.000966808 0.000254728 0.004 792.963 -4.46327 
188 1 1 -0.017904 -0.0321007 0.0101563 0 0 0 -7.18269e-07 1.28269e-05 -5.88886e-06 -1.59003e-05 -2.34536e-05 3.69742e-06 -0.00138855 0.00048736 0.000979308 0.004 314.358 7.41425 
810 1 1 -0.01026 -0.0344511 0.0102036 0 0 0 2.48744e-06 8.47411e-06 4.03595e-07 -2.20719e-05 -1.42706e-05 1.21429e-05 0.000738369 0.000533524 -0.000411122 0.004 358.235 14.4905 
412 1 1 -0.00316726 -0.0328807 0.0133525 0 0 0 5.13447e-06 3.99011e-06 3.19043e-06 -4.2899e-05 -5.82923e-06 1.1274e-05 0.00026118 -2.08339e-05 -0.00101617 0.004 456.92 10.2606 
545 1 1 0.0045207 -0.0343088 0.0121941 0 0 0 8.98574e-07 -1.04392e-06 1.39074e-05 -3.55971e-05 -2.49239e-06 5.6014e-06 -0.00354182 -0.00256899 0.000758834 0.004 631.768 -8.9151 