ITEM: TIMESTEP
32000
ITEM: NUMBER OF ATOMS
891
ITEM: BOX BOUNDS mm mm mm
-0.05 0.05
-0.05 0.05
0 0.15
ITEM: ATOMS id type type x y z ix iy iz vx vy vz fx fy fz omegax omegay omegaz radius f_Temp[0] f_heatFlux[0] 
199 1 1 -0.00444377 -0.0458158 0.00397434 0 0 0 -6.82834e-07 2.21752e-07 3.99171e-07 2.73406e-07 3.14562e-07 2.57874e-07 -5.15098e-06 -7.50593e-05 0.000112123 0.004 473.472 4.00661 
873 1 1 -0.0201484 -0.0414789 0.00390159 0 0 0 -8.75221e-07 -6.38411e-08 -4.77566e-08 -1.37716e-07 1.75842e-07 4.10318e-07 -9.58746e-06 -0.000132396 9.51321e-05 0.004 376.198 5.37513 
485 1 1 -0.0126796 -0.0442534 0.00397264 0 0 0 -6.8607e-07 7.89097e-08 9.21604e-08 1.54086e-07 -8.92264e-08 3.2117e-07 -1.3225e-06 -8.02751e-05 8.07938e-05 0.004 408.818 6.218 
850 1 1 0.00335642 -0.0441759 0.00394115 0 0 0 -8.29994e-07 3.69035e-07 7.9327e-07 1.46608e-07 4.36872e-07 1.2052e-08 4.89815e-05 -7.55251e-05 -2.26387e-05 0.004 552.066 0.0336201 
186 1 1 0.0114401 -0.0445988 0.00392827 0 0 0 -6.54561e-07 1.02003e-07 7.67774e-07 1.08015e-07 3.28339e-07 2.07448e-07 2.29244e-05 -4.84508e-05 7.95979e-05 0.004 662.292 -4.63108 
560 1 1 0.018969 -0.0420006 0.00394676 0 0 0 -9.06145e-07 2.35607e-07 8.58822e-07 5.65871e-08 3.24248e-07 1.22539e-07 1.84728e-05 1.07343e-05 2.55211e-05 0.004 701.035 -5.20518 
102 1 1 -0.0147501 -0.0357331 0.0038631 0 0 0 -1.46325e-06 -2.28616e-07 6.46996e-07 -3.4834e-07 1.6844e-07 1.00146e-06 4.49109e-05 -0.000170592 -3.46624e-05 0.004 404.627 4.70125 
88 1 1 -0.00730762 -0.0383837 0.00392726 0 0 0 -1.32619e-06 4.84498e-08 6.46454e-07 -1.05723e-07 3.04274e-07 5.33057e-07 0.000123891 -3.87342e-05 6.20641e-05 0.004 455.645 3.94974 
776 1 1 0.00520385 -0.0354368 0.00395023 0 0 0 -1.75343e-06 3.10358e-07 1.65122e-06 8.7612e-08 7.09039e-07 3.71333e-07 -0.000126334 1.22841e-05 -8.08145e-05 0.004 607.474 -1.93858 
410 1 1 0.0130236 -0.0368131 0.00392572 0 0 0 -1.80052e-06 1.83706e-07 1.69951e-06 8.38897e-08 5.38682e-07 2.77025e-07 2.29751e-05 -0.000185103 0.000111837 0.004 669.315 -4.27599 
282 1 1 0.025876 -0.0381319 0.00388527 0 0 0 -1.192e-06 1.59271e-08 1.02494e-06 -4.73286e-08 3.67824e-07 2.51364e-07 0.000164322 -0.000192611 0.000132248 0.004 743.479 -4.92167 
682 1 1 -0.0302016 -0.0348779 0.00393465 0 0 0 -5.7608e-07 -1.03083e-07 -1.3284e-07 -1.36607e-07 -2.69665e-07 1.76806e-07 -1.38221e-06 5.78868e-05 8.13443e-05 0.004 332.222 3.63119 
251 1 1 -0.0224189 -0.0338476 0.00392332 0 0 0 -1.26772e-06 -1.0121e-07 -1.17672e-07 -9.08936e-08 2.41366e-07 7.38698e-07 4.82969e-05 -0.000197844 6.93288e-06 0.004 363.018 4.672 
770 1 1 -0.00204754 -0.0321408 0.00393964 0 0 0 -2.09097e-06 3.42662e-07 1.46489e-06 -8.45758e-08 2.3475e-07 1.81232e-07 3.64884e-05 -0.000240189 0.000187438 0.004 542.226 0.479874 
883 1 1 0.018166 -0.0307536 0.00390023 0 0 0 -2.64945e-06 2.40265e-07 3.19162e-06 1.09665e-07 8.77021e-07 6.03588e-07 4.82187e-06 -0.000591356 -1.14705e-06 0.004 711.697 -4.717 
838 1 1 0.0320336 -0.033109 0.00396072 0 0 0 -1.66115e-06 9.99738e-08 2.32143e-06 4.69244e-08 2.87151e-07 3.83624e-07 0.000378921 -8.35586e-05 0.000198644 0.004 767.379 -4.00472 
617 1 1 -0.0372521 -0.0271215 0.00391646 0 0 0 -7.10305e-07 -1.60685e-07 -4.02933e-07 -7.22758e-07 -4.98971e-07 2.33792e-09 -7.58849e-05 8.9941e-06 7.08507e-05 0.004 312.819 2.24203 
824 1 1 -0.0292998 -0.0270298 0.00392983 0 0 0 -1.56101e-06 -6.20013e-07 4.54157e-08 -1.64451e-06 -8.95587e-07 7.33834e-07 2.16946e-05 -0.000285717 3.72504e-05 0.004 323.714 3.10713 
571 1 1 -0.0202615 -0.0262215 0.00393284 0 0 0 -3.18388e-06 2.53588e-07 4.87102e-07 -2.15198e-06 5.14795e-07 1.0023e-06 -7.77805e-07 -0.000463871 0.000384783 0.004 359.689 4.6092 
861 1 1 -0.00959294 -0.0297305 0.00389698 0 0 0 -2.63693e-06 -8.69778e-07 1.48079e-06 -4.15088e-07 -6.29906e-07 8.08603e-07 8.07342e-05 -0.000329004 0.000146968 0.004 449.256 3.61183 
434 1 1 0.0103455 -0.0293807 0.00393742 0 0 0 -2.43406e-06 1.66818e-07 2.01766e-06 2.49561e-07 8.39991e-07 3.60042e-07 -3.29819e-05 -0.00016247 8.38537e-06 0.004 657.17 -3.55638 
103 1 1 0.0311547 -0.0252347 0.00394363 0 0 0 -2.39128e-06 2.24554e-07 3.41087e-06 4.0393e-08 3.32487e-07 4.21085e-07 -0.000150829 0.000112633 -1.79935e-05 0.004 772.887 -3.42783 
769 1 1 -0.041344 -0.0202818 0.0039823 0 0 0 -6.82621e-07 -3.54737e-08 -4.24349e-07 -8.6465e-07 -2.17585e-07 -1.9691e-07 -2.29076e-05 7.83046e-05 1.70693e-05 0.004 307.341 1.57304 
94 1 1 -0.0333714 -0.0202163 0.00394369 0 0 0 -2.24037e-06 -7.35072e-07 -2.71032e-07 -2.19005e-06 -1.13357e-06 7.50459e-07 0.000167522 -0.000341662 -4.28816e-06 0.004 315.535 2.36715 
40 1 1 -0.025401 -0.0201464 0.00391761 0 0 0 -4.23199e-06 -1.03765e-06 -2.50837e-07 -1.56187e-06 -5.98069e-07 7.95347e-07 -0.000185725 -0.000275891 0.000580227 0.004 333.571 3.49834 
19 1 1 -0.00865072 -0.0218804 0.00393966 0 0 0 2.39523e-07 -3.17967e-06 9.42484e-07 1.99213e-06 -8.52619e-07 -4.33458e-07 -0.000128434 -0.000521259 -0.00121663 0.004 451.544 3.60459 
442 1 1 -0.000436967 -0.02185 0.00393583 0 0 0 -2.86818e-06 -1.29417e-06 2.61795e-06 9.28094e-07 -4.8245e-07 7.00911e-07 0.000344183 -0.000307134 -0.000102374 0.004 551.696 0.289844 
259 1 1 0.00753191 -0.0220002 0.00392511 0 0 0 -2.58608e-06 -4.72831e-07 2.44188e-06 6.76414e-07 8.10263e-07 2.91865e-07 0.000398041 -0.000207136 0.000132565 0.004 639.965 -2.92389 
512 1 1 0.0153883 -0.0232356 0.00397834 0 0 0 -2.71375e-06 -3.47549e-07 2.2161e-06 2.57989e-07 1.09974e-06 3.76534e-07 -3.52366e-05 -0.000257213 -0.000108838 0.004 705.178 -4.22708 
470 1 1 0.0232616 -0.0243589 0.00390815 0 0 0 -2.949e-06 1.91629e-08 4.41185e-06 2.38979e-07 8.77888e-07 5.84787e-07 -2.1031e-05 -0.000409117 0.000174334 0.004 747.892 -4.37246 
451 1 1 0.0390293 -0.0244875 0.00392048 0 0 0 -1.56164e-06 -2.49213e-07 8.8441e-07 8.70974e-10 3.05613e-07 1.89132e-07 6.40704e-05 -3.54983e-05 1.19904e-05 0.004 786.066 -2.33604 
531 1 1 -0.0164596 -0.0192004 0.00396125 0 0 0 4.55372e-07 -5.17273e-06 3.43557e-07 3.26081e-06 -4.29614e-06 -1.51198e-08 0.000535962 0.000330471 -0.00316029 0.004 369.658 4.97059 
229 1 1 0.0202059 -0.0169136 0.00386875 0 0 0 -3.98249e-06 -2.49606e-07 4.88675e-06 3.43612e-07 1.1033e-06 3.34905e-07 0.000282999 -0.000519267 0.000356248 0.004 736.354 -4.21141 
734 1 1 0.0280521 -0.017942 0.00394397 0 0 0 -2.92132e-06 -1.79093e-07 3.85449e-06 -6.9993e-08 3.23544e-07 5.39987e-08 0.000167076 -1.09893e-05 -0.00011927 0.004 771.053 -3.2351 
635 1 1 0.0425981 -0.0174495 0.00392191 0 0 0 -1.66839e-06 5.78524e-08 1.31794e-06 -1.2674e-07 3.20578e-07 2.24729e-07 4.00519e-05 -0.00042465 6.60638e-05 0.004 794.513 -1.2267 
87 1 1 -0.0448224 -0.0104639 0.0039142 0 0 0 -4.11973e-07 1.50986e-07 -3.22953e-07 2.42953e-07 -8.58146e-08 2.63227e-07 5.59404e-06 -4.3172e-05 -2.36434e-05 0.004 303.075 0.805065 
406 1 1 -0.0373951 -0.013391 0.00396015 0 0 0 -9.64777e-07 -4.77574e-08 -3.6288e-07 -8.05447e-07 -1.76878e-07 7.78396e-07 1.94049e-06 -0.000172036 -0.000110932 0.004 307.071 1.44532 
224 1 1 -0.0230581 -0.0126019 0.0038796 0 0 0 -5.27807e-06 -5.77909e-06 -8.10462e-07 5.8053e-07 -6.87532e-07 2.28147e-06 0.000356116 -0.000326756 -0.00143991 0.004 346.721 3.66319 
751 1 1 -0.0102996 -0.0141546 0.00396944 0 0 0 1.14265e-06 -9.17179e-06 -3.47716e-07 2.61995e-06 -1.87116e-07 -2.04583e-07 0.00031245 -0.000398362 0.00224126 0.004 427.366 3.852 
622 1 1 -0.00273388 -0.0117409 0.00388523 0 0 0 -2.33206e-06 -1.45881e-06 2.41137e-06 6.98402e-07 -2.07737e-07 -1.63247e-07 -1.68129e-05 -0.000534507 -0.0003776 0.004 505.943 1.49779 
128 1 1 0.00951066 -0.010685 0.00388458 0 0 0 -4.65111e-06 -1.85608e-07 4.15291e-06 5.22595e-07 1.19417e-06 2.52088e-07 -5.08408e-05 -0.000545078 -0.000152944 0.004 666.837 -3.63605 
68 1 1 0.0262808 -0.010211 0.00395439 0 0 0 -4.42612e-06 -3.40639e-07 4.61389e-06 2.62086e-07 8.36383e-07 -4.1809e-08 3.60348e-05 -0.000385943 0.000328542 0.004 774.2 -3.08484 
791 1 1 0.0340945 -0.0118532 0.003928 0 0 0 -3.15927e-06 -1.10699e-06 3.04384e-06 -3.43457e-07 -1.26175e-07 8.55524e-07 0.000681555 -0.000545276 1.4933e-06 0.004 789.753 -1.85363 
354 1 1 -0.0380749 -0.00550396 0.00392042 0 0 0 -9.07631e-07 1.59571e-07 -8.06319e-07 6.05249e-07 8.12766e-10 8.08323e-07 -5.92305e-05 -0.00012916 0.000144998 0.004 306.376 1.27558 
725 1 1 -0.0304901 -0.00800531 0.0039252 0 0 0 -1.58676e-06 -4.35592e-07 -4.6051e-07 -9.0328e-07 -2.17712e-06 3.789e-07 7.85682e-06 -0.000275876 -0.000611702 0.004 314.181 2.13888 
353 1 1 -0.0161288 -0.00879815 0.00391143 0 0 0 -4.6708e-06 -2.55424e-05 2.19196e-06 1.51265e-06 3.8037e-06 1.77941e-06 0.00325285 -0.000483009 -0.00086333 0.004 385.522 1.94384 
391 1 1 -0.00857662 -0.0063975 0.00391357 0 0 0 -5.87882e-06 -7.13446e-06 2.49026e-06 1.3567e-06 1.48661e-06 -6.71407e-08 0.000460924 0.000118034 0.00224151 0.004 448.035 3.27304 
683 1 1 0.0173533 -0.00945629 0.00390986 0 0 0 -4.55689e-06 -6.17818e-07 4.73439e-06 3.28597e-07 8.44666e-07 1.5098e-08 -4.64772e-05 -0.000517759 -2.18295e-05 0.004 726.893 -4.32092 
690 1 1 0.0385537 -0.00520143 0.00390022 0 0 0 -3.01934e-06 -1.56782e-06 4.38774e-06 -1.60492e-07 1.75154e-07 4.00742e-07 0.000566312 -0.000441822 0.000505825 0.004 794.851 -1.09475 
10 1 1 0.0449635 -0.00990888 0.00397399 0 0 0 -7.48266e-07 7.62252e-08 1.05512e-06 6.19784e-08 2.51965e-07 1.55919e-07 -0.000176743 0.000254481 -8.64338e-05 0.004 797.138 -0.758196 
402 1 1 -0.046017 -0.00264172 0.00392182 0 0 0 -5.7255e-07 1.60281e-07 -5.94988e-07 2.59628e-07 -8.65703e-08 4.60912e-07 -6.5343e-05 5.02112e-06 7.17134e-05 0.004 303.415 0.819627 
761 1 1 -0.0294744 -0.000168339 0.00392562 0 0 0 -1.85537e-07 -8.25144e-07 -1.44445e-06 6.24436e-07 -2.56796e-06 8.62052e-07 6.85741e-05 1.21768e-06 8.79408e-05 0.004 322.564 2.67041 
293 1 1 -0.0229324 -0.00466874 0.00395949 0 0 0 -9.96554e-07 -6.80425e-06 -2.29559e-07 -1.56489e-06 9.93254e-07 6.98866e-07 -6.04028e-05 -0.000939088 -0.00117124 0.004 345.058 3.7418 
384 1 1 -0.0147467 -0.000920299 0.0039815 0 0 0 0.00036034 -0.000518728 3.58258e-06 3.6466e-05 0.000284324 1.00816e-06 0.141443 0.0888213 0.218626 0.004 301.698 2.32112 
378 1 1 0.00130609 -0.00490407 0.00392906 0 0 0 -4.15212e-06 -1.06063e-06 2.24933e-06 -1.83789e-06 5.48952e-08 3.32997e-07 -0.000175377 -0.000873968 0.000785001 0.004 556.947 -0.309608 
390 1 1 0.0103707 -0.00276532 0.00396886 0 0 0 -3.5393e-06 -5.1066e-07 3.11289e-06 -2.39581e-07 6.68308e-07 1.27063e-07 -0.00015616 -0.000658061 -0.000245255 0.004 685.307 -4.53644 
411 1 1 0.0223603 -0.00329286 0.00397625 0 0 0 -4.38814e-06 -7.23981e-07 5.41673e-06 1.99808e-07 6.09429e-07 -3.70717e-08 0.000306575 -0.000567786 -8.79359e-05 0.004 760.699 -3.90303 
342 1 1 0.0307348 -0.00361666 0.00397529 0 0 0 -2.78923e-06 -8.98649e-07 2.67064e-06 2.41723e-07 1.20646e-07 1.05586e-07 -9.19143e-05 -0.000233115 -0.000656482 0.004 789.407 -1.84864 
262 1 1 0.0460221 -0.00206505 0.00395833 0 0 0 -1.16642e-06 -8.29146e-07 1.12193e-06 1.99563e-07 1.46629e-07 5.8587e-08 0.000458146 -0.000116392 0.000331206 0.004 797.286 -0.725981 
261 1 1 -0.0398214 0.002246 0.00393476 0 0 0 -1.05259e-06 1.31351e-07 -1.24291e-06 6.74761e-07 -2.81563e-07 8.42317e-07 -4.93981e-05 -1.19764e-05 -5.38323e-05 0.004 306.947 1.27444 
666 1 1 -0.00454676 0.000451416 0.00395604 0 0 0 -5.99402e-06 -2.95282e-06 1.12058e-06 -1.06558e-06 -1.94535e-06 8.55489e-07 0.000405075 -0.000468794 -0.000739927 0.004 492.446 2.16473 
815 1 1 0.00434368 0.00243559 0.00392711 0 0 0 -3.67607e-06 6.34466e-08 1.77363e-06 -1.38321e-06 1.10824e-06 5.48075e-07 8.51565e-05 -0.000593462 -0.00021667 0.004 611.095 -2.24899 
306 1 1 0.01637 0.00247665 0.00395809 0 0 0 -3.02685e-06 -6.87716e-07 4.2842e-06 3.17445e-07 1.19997e-06 5.93971e-10 -7.00831e-05 -0.000452561 0.000190459 0.004 734.889 -4.87264 
178 1 1 0.0241042 0.00444175 0.00386114 0 0 0 -3.02872e-06 -1.04911e-06 5.96948e-06 5.81651e-07 4.70365e-07 -9.6154e-09 -0.000310355 -0.00062855 -0.00033205 0.004 763.275 -3.70826 
862 1 1 0.0320656 0.00423367 0.00393097 0 0 0 -2.2416e-06 -1.13212e-06 5.14196e-06 7.64316e-07 3.43712e-08 -7.60614e-08 0.000577751 0.000248296 0.000294771 0.004 785.221 -2.20338 
661 1 1 0.0398756 0.0029147 0.0039468 0 0 0 -2.16994e-06 -1.44178e-06 2.71221e-06 3.79895e-07 2.18507e-07 2.77172e-09 0.000645066 -0.000191346 -4.18907e-05 0.004 794.391 -1.16116 
677 1 1 -0.0453782 0.0078854 0.00393641 0 0 0 -6.08168e-07 1.17339e-07 -6.95358e-07 2.89111e-07 -4.78117e-08 3.29228e-07 1.51008e-05 -5.09695e-06 2.75918e-05 0.004 303.49 0.849621 
12 1 1 -0.0333161 0.0067196 0.00393695 0 0 0 -1.07937e-06 -5.85325e-08 -1.39877e-06 1.031e-06 -9.48619e-07 1.25066e-06 3.8804e-05 -0.000145579 -1.97826e-05 0.004 316.151 2.17289 
420 1 1 -0.0254 0.00664838 0.00392686 0 0 0 -1.15868e-06 -9.20191e-07 -1.47493e-06 1.12661e-06 -2.80162e-06 8.52211e-07 0.000129713 3.99235e-05 -0.00022199 0.004 337.078 3.3373 
654 1 1 -0.0175134 0.00720946 0.00387212 0 0 0 -1.82419e-06 -5.64965e-07 -1.54172e-06 6.83049e-07 -2.2847e-06 -2.02627e-07 0.000271202 -0.000371689 0.000312028 0.004 375.073 4.15745 
145 1 1 -0.00454407 0.00836536 0.00386311 0 0 0 -2.33209e-06 -4.79449e-07 5.40327e-07 -9.11838e-08 -5.93849e-07 9.90199e-07 -0.000215221 -0.000442253 -3.66153e-05 0.004 490.629 2.36071 
624 1 1 0.0451449 0.00890653 0.00390657 0 0 0 -2.48321e-06 -1.44139e-06 2.55627e-06 2.66185e-07 1.69261e-07 2.4216e-08 0.00019645 -0.000391138 -6.55983e-05 0.004 796.395 -0.888208 
613 1 1 -0.0372991 0.0135339 0.00384344 0 0 0 -1.31306e-06 9.173e-08 -1.60768e-06 6.23281e-07 -4.11763e-07 5.68485e-07 -2.30683e-05 -0.000240539 7.90171e-05 0.004 309.072 1.60792 
265 1 1 -0.0293062 0.0135429 0.00396371 0 0 0 -1.13308e-06 1.9062e-07 -1.13905e-06 7.24349e-07 -6.64806e-07 7.73295e-07 -9.3669e-05 -3.05831e-05 8.83879e-05 0.004 324.17 2.93529 
273 1 1 -0.0213694 0.0141274 0.00392939 0 0 0 -1.49627e-06 3.22203e-07 -1.35358e-06 -1.253e-07 -1.01875e-06 9.91766e-07 5.27289e-05 -0.000164887 -0.000115502 0.004 346.878 3.96247 
492 1 1 -0.01145 0.0123712 0.00398079 0 0 0 -2.01174e-06 4.55215e-07 -9.29567e-07 1.59087e-07 -2.04846e-07 9.82806e-07 -0.000264908 -0.000174791 -3.92257e-05 0.004 422.785 4.8083 
234 1 1 0.00585285 0.010393 0.0039289 0 0 0 -2.53032e-06 -2.22568e-07 1.86939e-06 3.16697e-07 7.98967e-07 4.15289e-07 -0.000186336 -0.00040079 -0.000169171 0.004 603.879 -1.57095 
160 1 1 0.0142843 0.0106356 0.00390958 0 0 0 -2.63655e-06 -9.73631e-07 3.33453e-06 4.92226e-07 8.40626e-07 -5.92504e-08 -3.06553e-05 -0.00043369 0.000219609 0.004 700.14 -3.98701 
484 1 1 0.0220893 0.0120738 0.0039012 0 0 0 -1.75129e-06 -8.96053e-07 3.87296e-06 5.23645e-07 7.24632e-07 -3.39666e-07 0.000179328 4.77107e-05 -1.4386e-05 0.004 750.384 -3.85604 
743 1 1 0.0300184 0.0126216 0.00398127 0 0 0 -1.61197e-06 -1.66566e-06 1.45464e-06 2.19401e-07 6.98583e-07 -2.74461e-08 0.000247918 8.51693e-05 -0.000221433 0.004 774.944 -2.92621 
514 1 1 0.0379536 0.0130186 0.00386906 0 0 0 -2.41713e-06 -1.96307e-06 3.84257e-06 2.44521e-07 2.66033e-07 -1.35909e-08 0.000463503 -0.000624272 0.000223181 0.004 789.706 -1.73917 
530 1 1 -0.0159002 0.0198648 0.00392796 0 0 0 -1.7559e-06 1.01298e-06 -1.41879e-06 4.07498e-07 -4.18195e-07 5.88453e-07 -8.43991e-05 -0.000218708 1.065e-05 0.004 374.289 4.49156 
227 1 1 -0.00736503 0.0192084 0.00396595 0 0 0 -1.95586e-06 5.836e-07 -1.53142e-06 2.78043e-07 7.09944e-08 5.31027e-07 -0.000197828 -0.000439784 -3.37938e-05 0.004 463.717 3.83852 
392 1 1 -0.00049863 0.0151513 0.00394446 0 0 0 -2.02519e-06 2.0784e-07 1.91822e-07 1.94722e-07 3.05825e-07 4.29487e-07 -9.94306e-05 -0.000204004 5.37198e-05 0.004 532.517 1.16055 
493 1 1 0.00985839 0.0172531 0.00394647 0 0 0 -2.01853e-06 -7.61415e-07 1.72128e-06 3.50797e-07 7.96707e-07 -1.66064e-07 0.00010113 -0.000284519 -0.000142459 0.004 650.134 -2.81044 
34 1 1 0.0176357 0.0187852 0.003941 0 0 0 -1.45174e-06 -1.19483e-06 3.10999e-06 2.63926e-07 9.72908e-07 -5.26717e-07 0.000297034 -0.000201979 7.13599e-05 0.004 712.48 -3.85178 
206 1 1 0.0255397 0.0192353 0.00396993 0 0 0 -1.31578e-06 -1.0329e-06 2.53349e-06 1.93747e-07 5.4762e-07 -3.55689e-07 0.000115234 0.000374938 2.05919e-05 0.004 757.217 -3.55969 
104 1 1 0.0334175 0.0199346 0.0038965 0 0 0 -2.26585e-06 -1.59192e-06 2.8451e-06 3.61717e-07 3.71607e-07 -1.72397e-07 0.000361516 -0.000588381 -0.000137242 0.004 779.414 -2.64525 
809 1 1 -0.0412058 0.0204949 0.00395497 0 0 0 -6.03174e-07 6.61342e-08 -7.68447e-07 2.16913e-07 -1.79583e-08 2.69876e-07 0.000100005 -1.20712e-05 -7.16569e-05 0.004 305.482 1.26726 
773 1 1 -0.0331523 0.0204531 0.00393522 0 0 0 -1.50113e-06 4.55536e-07 -2.01161e-06 3.68511e-07 -3.14579e-07 4.21862e-07 2.60955e-05 -0.000259524 -7.73282e-05 0.004 316.562 2.55258 
792 1 1 0.00347677 0.0219735 0.00392106 0 0 0 -1.56068e-06 2.07797e-07 3.41418e-07 2.74993e-07 6.30339e-07 3.99329e-08 -2.69043e-05 -0.000288199 -0.000163519 0.004 585.694 -0.883742 
718 1 1 0.0413199 0.0203659 0.00392989 0 0 0 -1.49628e-06 -1.1604e-06 1.89846e-06 2.23901e-07 1.61066e-07 -1.39694e-07 0.00012964 6.81472e-05 8.69684e-06 0.004 789.82 -1.82327 
101 1 1 -0.0371146 0.0272995 0.00390402 0 0 0 -1.00503e-06 5.47295e-07 -1.08903e-06 1.55482e-07 -1.46989e-07 2.13179e-07 -6.86925e-05 -8.08038e-05 6.46397e-05 0.004 311.653 2.11314 
246 1 1 -0.0290567 0.0272807 0.00398271 0 0 0 -9.06891e-07 2.92233e-07 -1.09015e-06 8.34593e-08 -1.24019e-07 2.34971e-07 8.23833e-05 8.14958e-05 -2.80965e-05 0.004 320.243 2.98178 
331 1 1 -0.0212281 0.0257798 0.00390018 0 0 0 -1.35252e-06 8.11166e-07 -2.19699e-06 1.95704e-07 -2.23815e-07 3.63123e-07 -0.000138253 -0.000171158 9.03176e-05 0.004 348.042 3.99544 
846 1 1 -0.0134708 0.0274168 0.0039748 0 0 0 -1.92871e-06 1.71513e-06 -1.60285e-06 -7.39375e-08 2.10325e-07 1.63295e-07 -0.000383618 -0.000402603 7.28957e-05 0.004 396.372 4.14853 
348 1 1 -0.00329916 0.0260611 0.00393374 0 0 0 -1.60272e-06 7.7986e-07 -1.37276e-06 7.14268e-08 3.50923e-07 1.39282e-07 -4.52942e-06 -0.000434353 2.05933e-05 0.004 513.321 1.74217 
786 1 1 0.00840353 0.0281551 0.00389685 0 0 0 -7.01314e-07 -2.34004e-08 7.30224e-07 7.96977e-08 6.64356e-07 -4.82952e-07 -5.78046e-05 -8.29609e-05 -3.23215e-05 0.004 634.093 -2.67658 
316 1 1 0.0162833 0.0272928 0.0039063 0 0 0 -7.56652e-07 -9.98737e-07 1.44383e-06 4.96888e-08 7.66668e-07 -4.44544e-07 6.23663e-05 -9.10362e-05 -9.17751e-05 0.004 707.483 -4.37311 
495 1 1 0.0288861 0.0264618 0.00396716 0 0 0 -1.37057e-06 -9.34637e-07 1.89821e-06 3.58042e-07 3.64097e-07 -3.0178e-07 0.000140275 -0.000100393 7.01363e-06 0.004 770.097 -3.47867 
863 1 1 0.0367263 0.0277633 0.00392936 0 0 0 -1.04649e-06 -7.06575e-07 1.18334e-06 2.2314e-07 1.43706e-07 -1.75359e-07 8.29057e-05 -9.47872e-05 -6.73144e-05 0.004 785.653 -2.4382 
511 1 1 -0.00761835 0.0327132 0.00388553 0 0 0 -1.48001e-06 1.45265e-06 -2.01813e-06 -1.02914e-07 3.81195e-07 -1.12241e-07 -0.000298022 -0.000233008 -0.000192228 0.004 476.708 2.68462 
722 1 1 0.00164033 0.0322874 0.00396636 0 0 0 -8.32415e-07 5.17333e-07 -4.01161e-07 1.36975e-08 4.93012e-07 -3.25171e-07 -0.000159971 -0.000141083 -9.95756e-05 0.004 567.678 -0.481369 
2 1 1 0.0229311 0.031696 0.00396244 0 0 0 -1.06481e-06 -6.36391e-07 1.56617e-06 3.20149e-07 3.97441e-07 -4.82153e-07 2.07866e-06 -0.000139446 -2.93944e-05 0.004 743.11 -4.7949 
254 1 1 0.0304507 0.0344617 0.0039815 0 0 0 0.000481608 -0.000706171 -3.98246e-09 -4.22123e-13 -2.25032e-13 -7.38258e-08 0.176952 0.120681 -0.0211551 0.004 798.547 0 
257 1 1 -0.0296322 0.0352231 0.00395613 0 0 0 -8.51568e-07 5.53026e-07 -1.01172e-06 1.07012e-07 -7.30354e-08 9.37002e-08 -0.000110806 -2.87283e-05 6.75631e-06 0.004 321.497 3.31272 
582 1 1 -0.0157655 0.0356205 0.00393205 0 0 0 -2.46627e-06 1.09818e-06 -2.13801e-06 2.15587e-07 -3.83806e-07 -2.03438e-07 -9.20148e-05 -0.000542537 -0.000232197 0.004 360.997 5.13675 
255 1 1 -0.00267125 0.038932 0.00391148 0 0 0 -2.65624e-07 7.92944e-07 -1.65108e-06 1.49266e-07 3.60678e-07 -4.27696e-07 -0.000114107 -0.000106208 -0.000108146 0.004 517.006 1.3371 
887 1 1 0.00812084 0.0373183 0.00392889 0 0 0 -4.17168e-07 3.13125e-07 -2.9349e-07 1.64191e-07 4.61222e-07 -3.54025e-07 -4.16159e-05 -0.000125169 -0.000139382 0.004 658.104 -4.42102 
719 1 1 0.0157853 0.0351951 0.00398364 0 0 0 -5.19096e-07 -3.5275e-07 6.21203e-07 2.146e-07 3.51233e-07 -3.74345e-07 -0.00012679 -9.49756e-05 -4.55596e-05 0.004 711.608 -5.17359 
21 1 1 0.0234243 0.0396338 0.00391497 0 0 0 -2.88984e-07 -3.08772e-07 5.46631e-07 6.61625e-08 2.42213e-07 -2.95172e-07 -4.41314e-05 -5.59393e-05 -9.25516e-05 0.004 746.589 -4.88269 
325 1 1 -0.0222388 0.0402984 0.00393951 0 0 0 -1.01534e-06 6.10866e-07 -1.28142e-06 1.07802e-07 -1.13242e-07 3.66416e-08 0.000105422 -8.38014e-05 -0.000126995 0.004 349.39 4.98328 
595 1 1 -0.014931 0.0435393 0.00398254 0 0 0 -4.01646e-07 2.18515e-07 -7.37781e-07 2.28537e-07 -9.48423e-08 2.61926e-08 0.000173129 -1.26035e-05 -0.0001125 0.004 385.576 4.99587 
568 1 1 0.0162912 0.0430934 0.00392629 0 0 0 -9.71647e-08 -9.70854e-08 1.22672e-07 3.04753e-08 2.59911e-07 -2.26422e-07 4.06532e-06 -2.83593e-05 -1.98805e-05 0.004 707.745 -4.97961 
387 1 1 -0.00719691 0.045487 0.00389933 0 0 0 1.32014e-07 6.2756e-07 -1.13519e-06 6.00425e-08 1.83037e-07 -2.9331e-07 6.74983e-05 7.46551e-05 1.65226e-05 0.004 479.382 2.73044 
852 1 1 0.000758887 0.0460615 0.00397617 0 0 0 7.72947e-09 1.76759e-07 -6.39304e-07 6.62244e-08 1.16248e-07 -2.58225e-07 0.00014543 -0.000121154 -2.25429e-05 0.004 555.761 -0.30829 
157 1 1 0.00865317 0.0452492 0.00389825 0 0 0 9.68778e-08 1.5583e-07 -1.72445e-07 1.5085e-07 3.30491e-07 -2.945e-07 -4.3163e-06 -1.7057e-05 -1.14835e-05 0.004 645.647 -3.69383 
400 1 1 -0.024752 -0.0387964 0.00974417 0 0 0 -1.1229e-06 2.54524e-07 1.4432e-07 4.24802e-08 3.6441e-07 7.12694e-07 -6.55689e-05 0.000124211 3.97328e-05 0.004 346.04 4.7876 
606 1 1 -0.000653938 -0.0387266 0.00813891 0 0 0 -3.13404e-06 9.84798e-08 1.74664e-06 -1.12528e-07 9.2431e-07 4.28688e-07 0.000152311 -0.000597488 0.000156232 0.004 546.797 0.489234 
724 1 1 -0.0339144 -0.0311598 0.00984801 0 0 0 -9.48798e-07 1.56417e-07 -3.8673e-08 3.84778e-09 3.65836e-07 7.22197e-07 -1.7374e-05 -0.000174784 9.07609e-06 0.004 318.673 2.7819 
183 1 1 0.0251947 -0.0311656 0.00751474 0 0 0 -3.10471e-06 -6.91931e-07 4.97325e-06 1.36305e-07 9.91713e-07 9.8823e-07 0.000444765 -5.28091e-05 1.93198e-05 0.004 751.194 -4.44395 
544 1 1 -0.0140218 -0.0253028 0.00874962 0 0 0 -5.09301e-06 -5.68343e-08 2.15109e-06 -1.29884e-06 1.02536e-06 2.08832e-06 7.47731e-05 -0.000209804 -3.70367e-05 0.004 401.753 4.30855 
29 1 1 -0.00450628 -0.0263794 0.00900727 0 0 0 -5.44471e-06 -1.30522e-06 4.28876e-06 -6.83311e-08 -3.98679e-07 1.20672e-06 -0.000573056 -0.000509749 8.87676e-05 0.004 488.69 2.50301 
248 1 1 0.00349901 -0.0278426 0.00763307 0 0 0 -3.91845e-06 -1.47286e-07 4.74346e-06 -4.65526e-07 1.51522e-06 1.47583e-07 0.000787368 -8.72953e-05 -2.33291e-05 0.004 592.903 -1.56079 
79 1 1 0.035837 -0.0289489 0.00959646 0 0 0 -1.93929e-06 1.0073e-06 3.42624e-06 1.75037e-07 3.11539e-07 6.61565e-07 -0.000440782 0.000855885 -0.000232188 0.004 779.127 -3.02464 
291 1 1 -0.00458871 -0.0173975 0.00909522 0 0 0 -5.02799e-06 -1.79991e-06 3.42846e-06 1.14009e-06 -5.21661e-07 3.41157e-08 -0.000192879 -0.000492567 0.000464088 0.004 501.963 1.61185 
891 1 1 0.00373489 -0.015528 0.00632507 0 0 0 -4.38437e-06 -1.12664e-06 5.19069e-06 1.07118e-06 9.80519e-07 2.62506e-07 -0.000142295 0.000113734 0.000388195 0.004 591.452 -1.3698 
870 1 1 0.0138323 -0.0156364 0.00831015 0 0 0 -8.07978e-06 -1.40584e-06 7.81469e-06 7.74785e-07 2.19238e-06 4.50041e-07 6.2857e-05 -0.000170338 -0.00014372 0.004 692.402 -4.26055 
777 1 1 0.034969 -0.018778 0.00771 0 0 0 -2.13445e-06 -3.74134e-07 1.98944e-06 -1.07486e-06 -3.83593e-07 9.87474e-07 -0.000343506 0.000577804 0.000168443 0.004 786.721 -2.20619 
837 1 1 -0.029449 -0.0146727 0.00803324 0 0 0 -4.56034e-06 -8.00283e-07 -3.75419e-07 -2.08466e-06 -1.8475e-06 1.54113e-06 -0.000176237 0.000337193 -0.000163331 0.004 322.407 2.67006 
445 1 1 -0.0181359 -0.0138493 0.00995274 0 0 0 -7.37306e-06 -5.50536e-06 3.3316e-06 -3.6368e-06 -5.442e-06 5.81049e-06 -0.0013009 -9.75647e-05 0.000144868 0.004 371.544 4.13469 
783 1 1 0.00485899 -0.00860659 0.00993767 0 0 0 -8.37903e-06 1.37245e-07 6.84826e-06 2.17345e-07 2.37505e-06 3.13567e-07 8.15323e-05 -0.000630953 0.000186093 0.004 606.97 -1.96989 
615 1 1 -0.0350999 -0.000758718 0.00955181 0 0 0 -1.84463e-06 5.07484e-07 -2.0464e-06 1.83521e-06 -6.78136e-07 1.5488e-06 -0.000173347 -1.56675e-05 6.6951e-05 0.004 310.992 1.687 
476 1 1 -0.0459522 0.00262139 0.00988977 0 0 0 -7.88732e-07 3.7989e-07 -1.05729e-06 3.05318e-07 -1.08758e-07 6.06546e-07 -6.95842e-05 8.60217e-05 5.42246e-05 0.004 302.576 0.686819 
16 1 1 -0.0210456 0.00169437 0.00830924 0 0 0 -8.12687e-07 -5.54046e-06 -5.02602e-06 1.59726e-06 -4.69048e-06 2.09356e-07 0.000467867 0.000814963 -0.000103812 0.004 353.451 3.85231 
303 1 1 0.0459492 0.00350463 0.00962656 0 0 0 -2.83218e-06 -2.14302e-06 4.72606e-06 2.46679e-07 3.24607e-07 -4.87799e-08 -0.00019594 0.000924963 0.000335503 0.004 796.775 -0.814586 
523 1 1 -0.0389797 0.0080308 0.0093286 0 0 0 -2.27969e-06 7.59753e-07 -2.85978e-06 1.0233e-06 -3.37828e-07 1.36288e-06 -0.00018694 -0.00021065 2.29684e-05 0.004 307.132 1.32744 
704 1 1 -0.010798 0.00519221 0.00743859 0 0 0 -3.55192e-06 -5.38739e-07 -5.18507e-07 6.78239e-07 -2.30386e-06 9.05753e-07 0.000159046 -0.000175427 -0.000152288 0.004 426.234 3.78283 
454 1 1 0.0010118 0.0071593 0.00933955 0 0 0 -5.66768e-06 -1.97117e-07 2.41866e-06 3.76621e-07 7.66835e-07 1.06813e-06 0.000190771 -0.000322287 -3.64905e-05 0.004 554.57 -0.0124986 
31 1 1 0.0102164 0.00547588 0.0083259 0 0 0 -6.16142e-06 -6.83317e-07 6.28066e-06 6.48046e-07 1.80325e-06 5.61436e-07 -0.000309952 -0.000606189 -0.000359367 0.004 657.37 -3.36112 
135 1 1 0.0188886 0.00749168 0.00960783 0 0 0 -7.68066e-06 -1.00945e-06 7.73834e-06 1.3939e-06 1.53305e-06 -3.34083e-07 -2.86652e-05 -0.00156082 -0.000513104 0.004 745.526 -4.52743 
712 1 1 0.0281139 0.00743265 0.00998855 0 0 0 -7.14485e-06 -4.56054e-06 1.2109e-05 1.68257e-06 1.25911e-06 -3.28813e-07 0.00106951 -0.00107125 -0.000385276 0.004 773.804 -3.14147 
210 1 1 0.0394934 0.00814606 0.0098988 0 0 0 -5.90548e-06 -2.81941e-06 7.73753e-06 7.80506e-07 7.01122e-07 1.31395e-07 -0.000258087 -0.000628475 -9.71743e-05 0.004 793.57 -1.29304 
651 1 1 -0.0437987 0.0143398 0.00823566 0 0 0 -1.20893e-06 1.62055e-07 -1.47522e-06 3.85447e-07 -1.05181e-07 5.16062e-07 -2.49426e-05 6.02347e-05 -3.85381e-05 0.004 304.758 1.08486 
621 1 1 0.0437182 0.0147846 0.00900765 0 0 0 -2.98886e-06 -1.3172e-06 3.83047e-06 3.46142e-07 3.42434e-07 -1.01918e-07 -0.000498452 0.000430239 -6.07882e-05 0.004 792.736 -1.40377 
726 1 1 -0.0257657 0.0199972 0.00692824 0 0 0 -2.12524e-06 1.14878e-06 -2.75146e-06 4.96965e-07 -1.8711e-07 6.98829e-07 -0.000432493 -0.000268152 5.77664e-05 0.004 331.258 3.46748 
230 1 1 -0.00847466 0.024595 0.00973776 0 0 0 -3.45638e-06 3.28537e-06 -4.65446e-06 3.94975e-07 1.05366e-06 3.77477e-07 -0.000808643 -9.27223e-05 -0.000138719 0.004 465.726 3.19374 
320 1 1 -0.00171266 0.020405 0.00979386 0 0 0 -3.97974e-06 1.85259e-06 -1.49917e-06 6.05549e-07 1.40934e-06 4.13484e-07 -0.00038851 -0.000357776 -0.000189737 0.004 529.283 1.34028 
7 1 1 0.0129211 0.0224303 0.00918518 0 0 0 -3.83857e-06 -8.50035e-07 3.129e-06 8.67972e-07 1.58132e-06 -9.08865e-07 -0.000322799 -0.000580628 -0.00021625 0.004 683.338 -3.85148 
83 1 1 0.0214164 0.0239651 0.00888426 0 0 0 -2.71609e-06 -1.62119e-06 4.92978e-06 4.06434e-07 1.10125e-06 -7.26178e-07 -0.000311355 -0.000804574 -6.29348e-05 0.004 747.134 -4.06383 
747 1 1 -0.0337321 0.0313835 0.00974072 0 0 0 -1.82115e-06 1.30978e-06 -2.61228e-06 3.06749e-07 -1.42856e-07 2.73451e-07 0.000108333 0.000327399 4.82891e-05 0.004 320.568 2.92806 
51 1 1 -0.0226192 0.0329654 0.00703451 0 0 0 -2.01698e-06 1.14302e-06 -2.90818e-06 3.01407e-07 -1.51453e-07 1.94774e-07 0.000123557 0.000173185 5.92989e-06 0.004 337.461 4.27607 
116 1 1 -0.00940735 0.0391203 0.00809817 0 0 0 -1.24989e-06 2.25313e-06 -4.03785e-06 2.26322e-07 6.21045e-07 -4.93557e-07 0.000121995 -0.000372194 -0.0002402 0.004 466.876 3.20115 
205 1 1 -0.000560456 -0.0460776 0.0110171 0 0 0 -2.06973e-06 9.6221e-08 7.78125e-07 -3.71696e-07 5.42305e-07 -3.80111e-10 1.07551e-06 0.000110611 0.000253535 0.004 546.848 0.971269 
836 1 1 0.00737985 -0.0454689 0.0106611 0 0 0 -1.96136e-06 8.09371e-09 1.23349e-06 -2.5366e-07 6.53392e-07 1.58464e-07 0.000129795 -0.000304138 0.000147188 0.004 610.53 -2.41325 
486 1 1 -0.0156916 -0.0402432 0.0103351 0 0 0 -2.45777e-06 -4.38046e-07 4.68613e-07 -4.59591e-07 5.00731e-07 9.9791e-07 6.49808e-05 -0.000148524 2.8445e-05 0.004 389.984 5.31535 
311 1 1 -0.0083681 -0.0439882 0.010679 0 0 0 -2.79766e-06 -1.35078e-07 9.78972e-07 -1.28767e-07 5.29364e-07 7.14057e-07 0.000192167 -0.000417648 0.000123667 0.004 441.419 5.92742 
447 1 1 0.0180551 -0.0423881 0.0118323 0 0 0 -2.02986e-06 6.54813e-07 2.36368e-06 3.12124e-08 6.4333e-07 3.80016e-07 0.000230985 0.000135873 4.57248e-05 0.004 693.203 -4.98603 
538 1 1 -0.0295743 -0.035351 0.0149849 0 0 0 -2.01185e-06 2.10559e-07 5.26241e-07 7.69205e-08 6.60941e-07 1.20655e-06 5.34693e-05 -0.000234891 0.000225051 0.004 329.684 3.60783 
279 1 1 0.011155 -0.0385417 0.0114152 0 0 0 -4.41738e-06 3.21285e-07 3.92236e-06 1.0176e-08 1.42386e-06 4.33921e-07 8.34421e-05 -0.000256515 0.000351009 0.004 650.529 -3.65762 
110 1 1 0.0250464 -0.0386627 0.0117241 0 0 0 -1.88922e-06 8.20674e-07 1.71666e-06 2.01671e-07 6.9862e-07 4.2528e-07 -0.000190679 0.000244081 4.15521e-05 0.004 734.369 -4.99188 
188 1 1 -0.0179041 -0.0321007 0.0101563 0 0 0 -4.01004e-06 -1.70331e-07 1.2802e-06 -8.51801e-07 1.72842e-06 2.07579e-06 2.85524e-05 -0.000323085 0.000249356 0.004 379.25 4.57966 
810 1 1 -0.0102601 -0.034451 0.0102036 0 0 0 -4.26589e-06 -1.96099e-07 2.54575e-06 -8.10938e-07 9.4782e-07 1.75823e-06 -4.26779e-05 -0.000547979 0.000259348 0.004 435.84 4.06223 
412 1 1 -0.00316744 -0.0328806 0.0133526 0 0 0 -6.72082e-06 -1.23228e-07 5.83012e-06 -6.13765e-07 1.59574e-06 2.25053e-06 0.000214792 -0.000181838 -2.79571e-05 0.004 502.628 1.96975 