ITEM: TIMESTEP
28000
ITEM: NUMBER OF ATOMS
891
ITEM: BOX BOUNDS mm mm mm
-0.05 0.05
-0.05 0.05
0 0.15
ITEM: ATOMS id type type x y z ix iy iz vx vy vz fx fy fz omegax omegay omegaz radius f_Temp[0] f_heatFlux[0] 
199 1 1 -0.00444377 -0.0458158 0.00397436 0 0 0 -2.76973e-06 -1.52229e-07 -3.74124e-07 -6.75313e-07 -3.68512e-07 -2.07098e-06 -0.000138742 -0.000162404 0.000534482 0.004 451.092 5.72264 
873 1 1 -0.0201484 -0.0414789 0.0039016 0 0 0 -2.25499e-06 8.44313e-07 -2.39727e-07 -1.2967e-06 -9.83434e-09 -1.76264e-06 -9.52031e-05 -0.000260486 0.000308355 0.004 347.885 6.75355 
485 1 1 -0.0126796 -0.0442534 0.00397265 0 0 0 -2.55062e-06 4.22466e-07 -7.0006e-07 -8.50704e-07 3.19318e-08 -1.97932e-06 -2.28924e-05 -0.00011869 0.000347651 0.004 374.203 8.70234 
850 1 1 0.00335642 -0.0441759 0.00394117 0 0 0 -2.99015e-06 -1.43202e-06 -4.44086e-07 -8.63716e-07 -6.04927e-07 -2.54004e-06 0.000427046 -0.000392241 -0.000345581 0.004 554.608 -1.62865 
186 1 1 0.0114401 -0.0445988 0.00392828 0 0 0 -1.66415e-06 -5.65864e-07 -5.11632e-07 1.26105e-07 -5.55952e-07 -1.21815e-06 9.84115e-06 -0.000460213 0.000261004 0.004 690.262 -7.7596 
560 1 1 0.018969 -0.0420006 0.00394677 0 0 0 -1.22934e-06 2.42434e-08 1.80491e-07 7.69749e-07 -6.66012e-07 -9.37738e-07 -1.85111e-05 1.24235e-05 7.08088e-05 0.004 730.252 -7.49001 
102 1 1 -0.0147501 -0.0357331 0.00386313 0 0 0 -4.23056e-06 2.46057e-06 7.08861e-07 -1.61169e-06 -6.03923e-07 -3.42317e-06 -0.000375199 -0.000386712 7.79934e-05 0.004 378.533 6.67639 
88 1 1 -0.00730761 -0.0383837 0.00392729 0 0 0 -4.20038e-06 4.47648e-08 -1.80753e-07 -1.3534e-06 -1.53492e-07 -2.80655e-06 0.000225706 -5.55867e-05 -0.000541807 0.004 432.924 6.04354 
776 1 1 0.00520385 -0.0354367 0.00395026 0 0 0 -4.19559e-06 -1.34394e-06 -1.4399e-06 6.00843e-08 -1.4753e-06 -2.28513e-06 0.00010027 -0.000322953 0.000124796 0.004 618.23 -2.72485 
410 1 1 0.0130236 -0.0368131 0.00392574 0 0 0 -3.1599e-06 -2.36616e-07 -5.14514e-07 5.78943e-07 -1.32802e-06 -1.80949e-06 -3.30466e-05 -0.00044362 0.00018596 0.004 693.984 -6.55958 
282 1 1 0.025876 -0.0381319 0.00388528 0 0 0 -1.0595e-06 -5.33658e-07 1.96465e-07 4.26307e-07 -1.73242e-06 -6.70944e-07 0.00016034 -0.000192568 7.22693e-05 0.004 768.225 -5.57585 
682 1 1 -0.0302016 -0.0348779 0.00393465 0 0 0 -1.1637e-06 1.23995e-06 5.27436e-07 -7.952e-07 5.25913e-07 -6.24391e-07 4.24068e-05 0.000194147 0.000162341 0.004 315.592 3.37319 
251 1 1 -0.0224189 -0.0338476 0.00392333 0 0 0 -3.25157e-06 1.82457e-06 1.86183e-08 -1.20089e-06 2.2762e-07 -2.6451e-06 -6.49107e-05 -0.00044375 0.000191824 0.004 338.967 5.62644 
770 1 1 -0.00204754 -0.0321408 0.00393966 0 0 0 -5.13512e-06 -7.38135e-07 -6.42467e-07 -2.38014e-07 -6.87649e-07 -1.13137e-06 0.000635234 -0.000109513 -0.000486817 0.004 538.595 1.26489 
883 1 1 0.018166 -0.0307535 0.00390026 0 0 0 -3.06844e-06 -1.07036e-06 7.80141e-07 6.14289e-07 -2.85704e-06 -1.66702e-06 0.000244782 -0.00049251 -0.000269926 0.004 737.193 -6.31752 
838 1 1 0.0320336 -0.033109 0.00396074 0 0 0 -1.28625e-06 -3.61579e-07 1.59907e-06 7.73505e-07 -1.75687e-06 -8.78808e-07 0.000411613 -0.000306258 0.000212506 0.004 785.465 -3.55344 
617 1 1 -0.0372521 -0.0271215 0.00391646 0 0 0 -1.27299e-06 1.51116e-06 2.83473e-07 -6.66021e-07 4.04522e-07 -2.34826e-07 -0.000347955 -7.2908e-05 0.000225794 0.004 304.131 1.39719 
824 1 1 -0.0292998 -0.0270298 0.00392984 0 0 0 -3.33413e-06 2.57752e-06 1.47461e-06 -1.6805e-06 1.16785e-07 -8.59935e-07 -0.000249604 -0.000737073 0.000300756 0.004 310.145 2.58236 
571 1 1 -0.0202615 -0.0262215 0.00393286 0 0 0 -6.06755e-06 3.60976e-06 2.26648e-06 -4.08283e-07 -4.97529e-07 -2.28001e-06 -0.000178201 -0.00105046 0.000461507 0.004 335.894 5.55646 
861 1 1 -0.00959295 -0.0297304 0.00389701 0 0 0 -6.57742e-06 3.31959e-06 4.90928e-07 -5.2522e-07 -1.60538e-06 -3.1551e-06 -0.000452479 -0.000895242 0.000203434 0.004 427.381 6.18755 
434 1 1 0.0103455 -0.0293807 0.00393745 0 0 0 -4.58463e-06 -1.54127e-07 -6.47547e-07 8.47525e-07 -2.7767e-06 -1.61053e-06 0.000151022 -0.000439445 9.11718e-05 0.004 677.536 -5.42012 
103 1 1 0.0311547 -0.0252347 0.00394365 0 0 0 -1.4237e-06 7.95397e-08 2.167e-06 1.14999e-06 -3.00687e-06 -1.96035e-06 -0.000203791 0.000166553 -6.70861e-05 0.004 788.03 -2.91364 
769 1 1 -0.041344 -0.0202818 0.0039823 0 0 0 -1.56143e-06 9.38224e-07 5.28991e-09 -4.89221e-07 3.89774e-08 -3.37116e-07 6.39447e-05 -7.84433e-05 0.000274136 0.004 301.852 0.7542 
94 1 1 -0.0333714 -0.0202163 0.0039437 0 0 0 -3.28783e-06 2.06862e-06 1.65433e-06 -7.38832e-07 1.05306e-07 -7.54763e-08 0.000399356 -0.000488017 8.95118e-05 0.004 305.858 1.69217 
40 1 1 -0.025401 -0.0201463 0.00391762 0 0 0 -5.23268e-06 3.61196e-06 2.0776e-06 -6.31086e-07 -5.10569e-07 -8.2354e-08 -5.53572e-05 -0.000591142 -2.32881e-05 0.004 317.09 3.46168 
19 1 1 -0.00865074 -0.0218804 0.00393968 0 0 0 -7.73371e-06 4.05184e-06 -1.15545e-07 2.16455e-06 -2.70231e-06 -1.81328e-06 -0.000325737 -0.00145741 -3.26196e-05 0.004 429.049 6.53853 
442 1 1 -0.000436985 -0.0218499 0.00393586 0 0 0 -7.65133e-06 2.62333e-06 3.61671e-07 1.50887e-06 -5.30354e-06 -2.29499e-06 -0.000529136 -0.0011544 -0.000173736 0.004 548.004 1.69009 
259 1 1 0.0075319 -0.0220001 0.00392513 0 0 0 -6.1942e-06 5.07086e-07 2.75269e-07 6.20094e-07 -5.1924e-06 -6.40521e-07 0.000244512 -0.000696411 0.000110388 0.004 656.644 -4.40946 
512 1 1 0.0153883 -0.0232356 0.00397836 0 0 0 -3.7261e-06 -1.53724e-06 -3.29206e-08 1.4484e-06 -3.68123e-06 -1.748e-06 7.97314e-05 0.000191472 -0.000512551 0.004 728.062 -5.71894 
470 1 1 0.0232616 -0.0243589 0.00390818 0 0 0 -2.69309e-06 -1.92288e-06 1.15468e-06 1.26147e-06 -4.58585e-06 -3.0714e-06 0.000326617 -0.000538931 0.000467939 0.004 769.61 -4.86057 
451 1 1 0.0390293 -0.0244875 0.00392049 0 0 0 -1.2593e-06 -3.49766e-07 4.54112e-07 1.10567e-06 -1.54231e-06 -6.9693e-07 9.32634e-05 -0.000129463 -2.88843e-05 0.004 795.283 -1.52041 
531 1 1 -0.0164596 -0.0192004 0.00396126 0 0 0 -6.70325e-06 4.15853e-06 1.31626e-06 6.41225e-07 -1.04946e-06 -1.14617e-06 -0.00122457 -0.00129253 -2.46089e-05 0.004 343.592 6.15277 
229 1 1 0.0202059 -0.0169136 0.00386879 0 0 0 -3.81375e-06 -2.2328e-06 -1.50347e-07 3.5772e-06 -5.14604e-06 -4.6596e-06 0.000311651 -0.000568596 0.000225722 0.004 758.424 -5.2921 
734 1 1 0.0280521 -0.017942 0.003944 0 0 0 -2.49246e-06 -7.40259e-07 1.51386e-06 2.8149e-06 -5.0294e-06 -3.47097e-06 5.69809e-05 -0.000325957 0.000341213 0.004 785.731 -2.95791 
635 1 1 0.0425981 -0.0174495 0.00392192 0 0 0 -3.92426e-07 -4.1833e-07 1.88146e-07 8.81363e-07 -5.1162e-07 -2.01752e-09 5.15371e-06 -3.48423e-05 -6.87768e-05 0.004 798.676 -0.551411 
87 1 1 -0.0448224 -0.0104639 0.0039142 0 0 0 -8.78707e-08 8.55237e-07 7.38842e-07 2.24812e-07 -2.86941e-07 3.70694e-07 -0.000135204 1.70284e-05 -1.22867e-06 0.004 300.586 0.283365 
406 1 1 -0.0373951 -0.013391 0.00396016 0 0 0 -2.78611e-06 2.47352e-06 2.6175e-06 -7.80618e-07 -8.70371e-08 2.93379e-07 -4.4979e-05 -0.000945693 1.8827e-05 0.004 301.919 0.73673 
224 1 1 -0.0230581 -0.0126019 0.00387961 0 0 0 -6.03024e-06 5.87535e-06 2.74957e-06 1.51093e-06 -1.16772e-06 4.51776e-07 -0.00109382 -0.00147289 0.000131307 0.004 328.054 4.26752 
751 1 1 -0.0102997 -0.0141545 0.00396946 0 0 0 -5.69668e-06 4.08496e-06 1.35837e-06 3.21485e-06 -2.31542e-06 -7.42529e-07 0.000133554 -9.19205e-05 -0.000169956 0.004 404.483 6.22341 
622 1 1 -0.00273391 -0.0117409 0.00388526 0 0 0 -5.65376e-06 3.78154e-06 9.55905e-07 3.95841e-06 -4.95215e-06 -1.02078e-06 -0.000451736 -0.000676135 -0.000179443 0.004 497.017 2.43975 
128 1 1 0.00951063 -0.010685 0.00388461 0 0 0 -3.83591e-06 9.21016e-07 -1.40742e-06 3.67562e-06 -7.26697e-06 -4.5286e-06 -0.00017155 -0.00038284 -0.000525295 0.004 688.187 -5.80123 
68 1 1 0.0262808 -0.0102109 0.00395441 0 0 0 -2.27879e-06 -1.65973e-06 -5.38566e-08 5.03153e-06 -5.32133e-06 -3.12637e-06 0.000340965 -0.00021686 -0.000291522 0.004 788.117 -2.76186 
791 1 1 0.0340944 -0.0118531 0.00392802 0 0 0 -2.63537e-06 2.66835e-07 -3.37912e-08 5.04717e-06 -5.40481e-06 -3.05177e-06 -7.19822e-05 -0.000507301 0.000680265 0.004 796.769 -1.09809 
354 1 1 -0.0380749 -0.00550396 0.00392041 0 0 0 2.87592e-07 2.57876e-06 3.16898e-06 4.58051e-07 -7.00126e-08 9.2321e-07 -2.98691e-05 0.000406666 -0.000265737 0.004 301.788 0.667931 
725 1 1 -0.0304901 -0.00800531 0.0039252 0 0 0 -3.63712e-06 2.32275e-06 2.02114e-06 -1.69677e-07 -7.91774e-07 3.9776e-07 6.47136e-05 -0.000690504 -0.000927214 0.004 305.362 1.5545 
353 1 1 -0.0161288 -0.00879808 0.00391144 0 0 0 -3.9003e-06 5.15558e-06 2.61867e-06 2.791e-06 -1.8169e-06 -7.90358e-08 -0.000893368 6.67335e-05 -0.000305746 0.004 363.09 5.78495 
391 1 1 -0.00857664 -0.00639746 0.00391358 0 0 0 -4.29941e-06 4.06872e-06 1.29106e-06 4.28984e-06 -2.98529e-06 -1.40048e-07 -0.000272211 -0.000434844 1.98591e-05 0.004 428.159 5.53946 
683 1 1 0.0173533 -0.00945626 0.00390989 0 0 0 -2.64715e-06 -1.1846e-06 -8.91866e-07 4.11795e-06 -5.49413e-06 -3.63828e-06 3.95802e-05 -0.000220833 -0.000263329 0.004 750.077 -5.68694 
690 1 1 0.0385537 -0.00520142 0.00390024 0 0 0 -1.60314e-06 -6.54114e-07 -6.66081e-07 2.33099e-06 -1.02775e-06 -2.19485e-06 6.33732e-05 -0.000353282 -0.000177959 0.004 798.641 -0.524615 
10 1 1 0.0449635 -0.00990887 0.003974 0 0 0 -4.59075e-07 -3.25281e-07 -6.5017e-08 1.27646e-06 -9.99529e-08 -7.2395e-07 2.8052e-05 4.66239e-05 0.000161913 0.004 799.463 -0.261532 
402 1 1 -0.046017 -0.00264172 0.00392181 0 0 0 6.76808e-07 8.04649e-07 1.29502e-06 5.95457e-07 -1.15514e-07 9.25476e-07 -3.39789e-05 -5.59003e-05 8.39134e-05 0.004 300.765 0.329902 
761 1 1 -0.0294744 -0.000168328 0.00392562 0 0 0 -3.96191e-07 3.63662e-06 3.63634e-06 2.13811e-06 -9.63683e-07 1.36127e-06 -0.000395065 8.31113e-05 7.44703e-05 0.004 310.497 2.4023 
293 1 1 -0.0229324 -0.00466872 0.0039595 0 0 0 -2.54707e-06 5.14793e-06 2.08357e-06 2.37404e-06 -1.52117e-06 1.0512e-06 0.000118276 -0.000211928 -0.000274608 0.004 326.048 4.32046 
384 1 1 -0.0147801 -0.000848012 0.0039815 0 0 0 0.000333904 -0.000724945 4.01287e-07 2.5946e-11 -1.92492e-11 -4.97133e-07 0.181656 0.0836696 0.226562 0.004 301.492 0 
378 1 1 0.00130606 -0.00490404 0.00392907 0 0 0 -3.89186e-06 2.35531e-06 2.84595e-07 6.57012e-06 -3.94282e-06 -6.8132e-07 -8.00354e-05 -0.000366376 -0.000351163 0.004 559.896 -1.24201 
390 1 1 0.0103706 -0.00276528 0.00396887 0 0 0 -1.89508e-06 8.2622e-07 -8.29557e-07 5.47974e-06 -6.56908e-06 -2.06237e-06 0.000224347 2.56323e-05 -0.000102807 0.004 712.326 -7.3999 
411 1 1 0.0223603 -0.00329284 0.00397627 0 0 0 -2.94423e-06 -6.47036e-07 -1.98223e-06 5.2836e-06 -4.85448e-06 -2.27356e-06 -0.000468657 -0.00056982 0.000382346 0.004 779.475 -4.00874 
342 1 1 0.0307348 -0.00361664 0.0039753 0 0 0 -1.06559e-06 -9.94828e-07 -4.81465e-07 2.88179e-06 -4.81406e-06 -1.14691e-06 -0.000203679 3.26923e-05 7.44312e-05 0.004 796.55 -1.14778 
262 1 1 0.0460221 -0.00206505 0.00395833 0 0 0 2.03531e-07 2.02909e-07 -4.8036e-07 1.83859e-06 -3.00436e-07 -9.4328e-07 -0.000136147 1.83289e-05 -0.000259916 0.004 799.5 -0.24635 
261 1 1 -0.0398215 0.00224601 0.00393475 0 0 0 4.19019e-07 1.98032e-06 2.43077e-06 1.43034e-06 -1.57434e-07 1.40499e-06 -0.00020689 -0.000255488 0.000165935 0.004 302.207 0.733681 
666 1 1 -0.00454679 0.000451447 0.00395605 0 0 0 -3.58372e-06 3.81023e-06 8.54213e-07 5.40372e-06 -3.75849e-06 2.36364e-07 -0.000300345 -0.000379063 -0.000134193 0.004 478.998 3.87516 
815 1 1 0.00434364 0.00243562 0.00392713 0 0 0 -2.5133e-06 2.11181e-06 5.64157e-08 8.41896e-06 -4.61137e-06 -1.75066e-06 -0.000348165 -0.000303369 0.000100161 0.004 626.032 -4.65111 
306 1 1 0.01637 0.0024767 0.00395811 0 0 0 -2.59696e-06 1.49038e-06 -9.08557e-07 6.42259e-06 -6.26541e-06 -1.29346e-06 -0.000381362 -0.000457082 0.000283934 0.004 760.649 -6.11422 
178 1 1 0.0241041 0.00444177 0.00386116 0 0 0 -1.07522e-06 -1.38259e-07 -2.42099e-06 4.90047e-06 -4.01076e-06 -2.14162e-06 0.000320228 -1.76589e-05 -0.000715605 0.004 781.094 -3.8027 
862 1 1 0.0320656 0.00423369 0.00393099 0 0 0 -1.56303e-07 -1.33213e-06 -2.38044e-06 3.57146e-06 -4.66126e-06 -1.54296e-06 5.17236e-05 -0.000104597 0.000110527 0.004 794.364 -1.62202 
661 1 1 0.0398756 0.0029147 0.00394681 0 0 0 3.28378e-07 3.25012e-07 -1.34126e-06 2.34148e-06 -1.84834e-06 -1.47741e-06 -0.000223984 -1.2658e-05 0.00023439 0.004 798.487 -0.580404 
677 1 1 -0.0453782 0.0078854 0.00393641 0 0 0 4.3288e-07 9.11804e-07 6.71485e-07 7.42958e-07 -7.14895e-08 7.46425e-07 -0.000152705 5.37224e-05 4.95749e-05 0.004 300.758 0.334809 
12 1 1 -0.0333161 0.00671961 0.00393695 0 0 0 -2.35109e-07 3.20191e-06 1.76824e-06 2.11398e-06 -5.51117e-07 1.61089e-06 -0.000627219 0.000171807 0.000171202 0.004 306.857 1.73187 
420 1 1 -0.0254 0.00664839 0.00392686 0 0 0 -1.38043e-06 4.68922e-06 1.82772e-06 3.23246e-06 -1.21858e-06 1.47667e-06 -0.000819217 -0.000393264 0.000151264 0.004 320.735 3.59805 
654 1 1 -0.0175135 0.00720949 0.00387212 0 0 0 -1.72309e-06 5.51649e-06 2.39808e-06 4.64059e-06 -2.69246e-06 5.12391e-07 -0.00108723 -0.000130882 -1.2798e-05 0.004 352.226 5.73717 
145 1 1 -0.00454411 0.0083654 0.00386312 0 0 0 -2.04448e-06 3.8466e-06 6.04102e-07 6.20457e-06 -3.94874e-06 -8.40401e-07 -0.00048972 -0.000246596 -0.000131708 0.004 475.64 4.3912 
624 1 1 0.0451449 0.00890653 0.00390658 0 0 0 7.76955e-07 2.89237e-07 -1.10046e-06 1.89687e-06 -5.90337e-07 -1.0349e-06 -4.62814e-05 0.00011019 -0.000218924 0.004 799.239 -0.344371 
613 1 1 -0.0372991 0.0135339 0.00384343 0 0 0 5.73965e-07 2.0468e-06 1.10628e-06 1.78017e-06 -2.27369e-07 1.54327e-06 -0.000199551 0.000258407 -0.000155409 0.004 302.958 0.96918 
265 1 1 -0.0293062 0.0135429 0.0039637 0 0 0 -6.25691e-07 3.354e-06 -4.49374e-07 2.3127e-06 -7.01539e-07 1.32385e-06 -5.41373e-05 0.000159086 6.58645e-05 0.004 310.993 2.59504 
273 1 1 -0.0213694 0.0141274 0.00392938 0 0 0 -1.20873e-06 4.29063e-06 -5.34857e-07 3.35408e-06 -1.25305e-06 1.55824e-06 -0.000514541 -0.000302961 -0.000157167 0.004 326.854 4.55259 
492 1 1 -0.01145 0.0123713 0.00398079 0 0 0 -1.56223e-06 4.55129e-06 -1.5631e-08 4.28961e-06 -2.76897e-06 8.37553e-07 -0.000460205 -0.000231407 -0.000159355 0.004 393.476 8.0875 
234 1 1 0.00585281 0.010393 0.00392892 0 0 0 -1.03705e-06 2.49069e-06 -3.2181e-07 6.76012e-06 -3.73172e-06 -1.6419e-06 -0.000180155 -0.000146373 1.59214e-05 0.004 613.72 -2.93522 
160 1 1 0.0142842 0.0106356 0.00390959 0 0 0 9.40769e-08 1.81462e-06 -1.29548e-06 5.97791e-06 -3.18912e-06 -1.35833e-06 -0.000413552 0.00020937 -0.000321713 0.004 722.854 -6.01832 
484 1 1 0.0220892 0.0120738 0.00390121 0 0 0 3.72125e-07 1.50782e-06 -2.23176e-06 3.80482e-06 -2.95413e-06 -1.02692e-06 -0.000363516 -0.00018594 0.000168365 0.004 769.864 -4.47193 
743 1 1 0.0300184 0.0126216 0.00398127 0 0 0 3.56427e-07 2.29529e-06 -4.13225e-07 2.23309e-06 7.88695e-07 -2.39123e-07 -0.000339938 -1.58904e-05 7.29137e-05 0.004 788.192 -2.65147 
514 1 1 0.0379536 0.0130186 0.00386906 0 0 0 1.13298e-06 9.18556e-07 -1.97051e-06 1.77454e-06 -8.48743e-07 -6.14633e-07 -0.000324036 0.00030769 -0.000467542 0.004 796.466 -1.10714 
530 1 1 -0.0159002 0.0198648 0.00392795 0 0 0 -3.52921e-07 3.3959e-06 3.04245e-07 2.93703e-06 -7.95615e-07 1.18534e-06 -0.000451684 -0.000133029 -1.24631e-05 0.004 349.688 6.16176 
227 1 1 -0.00736505 0.0192084 0.00396595 0 0 0 -4.0608e-07 3.48698e-06 -3.70762e-07 3.09017e-06 -1.90135e-06 3.56402e-07 -0.000270266 -7.6676e-05 -0.000179662 0.004 439.099 7.18552 
392 1 1 -0.000498658 0.0151514 0.00394447 0 0 0 -7.13737e-07 3.13601e-06 -5.2112e-07 4.8361e-06 -3.25423e-06 -4.80363e-07 -0.000297437 -0.000126632 -0.000300198 0.004 524.51 2.49399 
493 1 1 0.00985837 0.0172532 0.00394648 0 0 0 4.33987e-07 2.88949e-06 -1.75938e-06 4.07449e-06 -1.862e-06 -9.2733e-07 -0.000511064 0.000144652 -6.99251e-05 0.004 666.93 -4.73872 
34 1 1 0.0176356 0.0187852 0.003941 0 0 0 4.32211e-07 3.09322e-06 -3.00992e-06 3.36766e-06 -1.48426e-06 -1.22887e-06 -0.000783243 9.22271e-05 -4.17756e-05 0.004 733.992 -5.60686 
206 1 1 0.0255397 0.0192353 0.00396994 0 0 0 3.8109e-07 2.40058e-06 -2.05366e-06 2.18482e-06 -1.20936e-06 -9.63988e-07 -0.000360752 -0.00047547 -0.000169772 0.004 774.745 -3.94263 
104 1 1 0.0334175 0.0199346 0.00389651 0 0 0 1.62541e-06 1.67988e-06 -1.96517e-06 1.96608e-06 -1.28998e-06 -4.17987e-07 -0.00037166 0.000507711 -7.53712e-05 0.004 790.862 -2.18645 
809 1 1 -0.0412059 0.0204949 0.00395497 0 0 0 2.01369e-07 1.13356e-06 3.96369e-07 7.00781e-07 -1.89938e-08 7.0634e-07 -0.000194257 -4.58472e-05 0.000111366 0.004 301.245 0.544441 
773 1 1 -0.0331523 0.0204531 0.00393521 0 0 0 2.60337e-07 2.41378e-06 7.53089e-07 1.78801e-06 -4.45292e-07 1.41869e-06 -0.000176379 0.000111475 -1.11868e-05 0.004 306.12 1.81586 
792 1 1 0.00347675 0.0219736 0.00392105 0 0 0 5.24105e-07 2.94569e-06 -1.63202e-06 2.86941e-06 -1.80977e-06 3.27565e-08 -0.000342813 0.000159011 0.0001041 0.004 590.818 -1.44102 
718 1 1 0.0413199 0.0203659 0.00392989 0 0 0 9.27202e-07 6.50821e-07 -1.32146e-06 1.09363e-06 -9.98817e-07 -3.96554e-07 -7.81429e-05 -0.000102264 -6.30459e-05 0.004 796.74 -1.09057 
101 1 1 -0.0371146 0.0272995 0.00390401 0 0 0 2.0717e-08 1.23776e-06 -6.0928e-08 9.38284e-07 -4.04282e-07 8.32529e-07 -0.00017127 1.33333e-05 0.000110702 0.004 303.606 1.26062 
246 1 1 -0.0290567 0.0272807 0.0039827 0 0 0 1.10451e-06 2.10715e-06 -1.09382e-07 1.16326e-06 -9.2242e-08 5.57036e-07 -0.00012635 0.000240962 -0.000253109 0.004 308.002 2.15564 
331 1 1 -0.0212281 0.0257799 0.00390017 0 0 0 3.16527e-08 2.74045e-06 -7.66345e-07 1.62906e-06 -5.23723e-07 1.08463e-06 -0.000482806 3.75098e-05 3.93345e-05 0.004 328.307 4.42233 
846 1 1 -0.0134708 0.0274168 0.0039748 0 0 0 4.18199e-07 2.62585e-06 -9.88305e-07 1.70272e-06 -6.15013e-07 3.49089e-07 -0.000233573 -0.000138268 -0.00019992 0.004 373.021 6.0851 
348 1 1 -0.00329918 0.0260612 0.00393374 0 0 0 7.51613e-07 2.30089e-06 -8.7396e-07 2.48227e-06 -1.26345e-06 3.22922e-07 -0.000159509 8.32809e-05 -0.000145848 0.004 501.987 3.34818 
786 1 1 0.00840352 0.0281551 0.00389685 0 0 0 6.75186e-07 2.85868e-06 -2.5775e-06 1.65935e-06 -8.58709e-07 -1.60949e-07 -0.000517078 9.84364e-05 -1.857e-05 0.004 650.209 -4.59212 
316 1 1 0.0162833 0.0272928 0.0039063 0 0 0 2.95071e-07 2.79834e-06 -1.85653e-06 1.77955e-06 -1.24603e-06 -3.74729e-07 -0.000377519 -0.000180166 -0.000107089 0.004 731.534 -6.15425 
495 1 1 0.0288861 0.0264618 0.00396716 0 0 0 1.31125e-06 1.9401e-06 -1.99239e-06 1.55805e-06 -1.20632e-06 -1.58251e-07 -0.0003208 5.80053e-05 -5.28702e-05 0.004 785.815 -3.20139 
863 1 1 0.0367263 0.0277633 0.00392936 0 0 0 8.69752e-07 9.49549e-07 -9.83487e-07 8.98898e-07 -1.00577e-06 -1.33676e-08 -0.000124267 5.43665e-05 -8.05337e-05 0.004 795.202 -1.5687 
511 1 1 -0.00761836 0.0327132 0.00388552 0 0 0 8.565e-07 1.78833e-06 -5.88901e-07 1.12301e-06 -8.48805e-07 4.12288e-07 -0.000115113 0.000145714 3.98075e-05 0.004 459.859 4.9289 
722 1 1 0.00164032 0.0322875 0.00396635 0 0 0 1.00348e-06 2.13268e-06 -1.61829e-06 9.93204e-07 -6.67085e-07 6.54772e-08 -0.000236334 0.000389669 0.00014446 0.004 570.978 -1.14969 
2 1 1 0.0229311 0.031696 0.00396244 0 0 0 1.32905e-06 1.53005e-06 -1.99334e-06 1.26554e-06 -8.79171e-07 -5.8422e-07 -5.40046e-05 0.000254719 1.38667e-05 0.004 766.93 -5.51527 
254 1 1 0.0304327 0.034494 0.0039815 0 0 0 -0.000818632 0.000870518 -1.47423e-14 3.17575e-19 -7.75038e-19 -1.73472e-17 -0.218134 -0.205132 -0.0703935 0.004 800 0 
257 1 1 -0.0296322 0.0352231 0.00395613 0 0 0 1.07899e-06 1.78097e-06 -6.4471e-07 6.15046e-07 -2.82893e-07 5.63107e-07 -0.000273969 0.000343702 0.000544865 0.004 307.93 2.3538 
582 1 1 -0.0157655 0.0356206 0.00393204 0 0 0 2.84873e-06 2.48833e-06 -1.05392e-06 1.29747e-06 1.68839e-07 1.05578e-06 -0.00052505 0.000748641 0.000379246 0.004 335.212 5.81699 
255 1 1 -0.00267126 0.038932 0.00391147 0 0 0 8.05145e-07 1.5173e-06 -1.52883e-06 1.98599e-07 -5.7555e-07 2.39486e-07 -0.000266419 0.000191076 -1.24915e-05 0.004 508.77 2.33394 
887 1 1 0.00812083 0.0373183 0.00392889 0 0 0 9.89682e-07 2.06703e-06 -1.49655e-06 2.9545e-07 -4.4093e-07 -2.32187e-07 -0.000287403 0.000102684 -0.000227178 0.004 685.214 -7.64023 
719 1 1 0.0157853 0.0351951 0.00398363 0 0 0 4.84241e-07 1.40452e-06 -1.24343e-06 7.00409e-07 -6.82519e-07 3.78486e-08 0.000228109 -5.22484e-05 9.99036e-05 0.004 740.255 -7.30352 
21 1 1 0.0234243 0.0396338 0.00391497 0 0 0 3.16476e-07 7.70015e-07 -6.3083e-07 2.98975e-07 -2.7425e-07 -2.24273e-08 -7.203e-06 4.71349e-05 0.000116078 0.004 770.575 -5.32463 
325 1 1 -0.0222388 0.0402984 0.00393951 0 0 0 1.25986e-06 1.30594e-06 -1.03096e-07 4.32099e-07 1.82043e-08 4.27047e-07 -0.000301674 0.000253783 0.000376807 0.004 325.459 5.08554 
595 1 1 -0.014931 0.0435393 0.00398254 0 0 0 5.97444e-07 9.06905e-07 -1.03613e-06 1.41327e-07 1.98303e-07 1.01827e-07 0.000235908 3.97241e-05 6.4291e-05 0.004 359.637 6.16244 
568 1 1 0.0162912 0.0430934 0.00392629 0 0 0 3.39652e-07 8.93054e-07 -5.29165e-07 5.67661e-08 -3.28919e-07 7.44866e-09 -0.000124258 -2.68628e-06 -0.000134839 0.004 735.164 -6.93151 
387 1 1 -0.00719691 0.045487 0.00389932 0 0 0 3.82717e-07 7.3987e-07 -8.5141e-07 -3.18327e-08 -2.46752e-07 3.32971e-07 4.24719e-05 7.19518e-05 2.11894e-05 0.004 462.903 4.63524 
852 1 1 0.000758886 0.0460615 0.00397617 0 0 0 4.46923e-07 4.85258e-07 -9.26983e-07 3.70157e-08 -1.39448e-07 1.13564e-07 0.000220653 -5.13617e-05 4.13287e-05 0.004 558.746 -1.26981 
157 1 1 0.00865317 0.0452493 0.00389824 0 0 0 8.12337e-07 1.26186e-06 -1.04547e-06 5.15749e-09 -4.3203e-08 -2.07715e-07 -8.89866e-05 8.83971e-05 0.00012269 0.004 668.176 -6.37454 
400 1 1 -0.024752 -0.0387964 0.00974419 0 0 0 -2.35713e-06 2.40559e-06 6.68991e-07 -1.71105e-06 2.03664e-07 -2.38587e-06 -0.00019608 0.000423756 -0.000165553 0.004 323.117 4.8527 
606 1 1 -0.000653945 -0.0387266 0.00813895 0 0 0 -7.04588e-06 -1.42474e-06 -2.41443e-06 5.96868e-08 -2.20717e-06 -5.23566e-06 -0.000423222 -0.000607991 0.000403074 0.004 543.275 1.16976 
724 1 1 -0.0339144 -0.0311598 0.00984801 0 0 0 -1.62272e-06 3.65904e-06 1.82126e-06 -1.15387e-06 3.04294e-07 -1.37416e-07 -0.000273549 -0.000381488 0.000237077 0.004 307.157 2.03843 
183 1 1 0.0251946 -0.0311656 0.00751478 0 0 0 -2.02048e-06 -1.64254e-06 1.64564e-06 1.4071e-06 -3.92924e-06 -2.22532e-06 -7.4796e-05 0.000220878 3.9708e-05 0.004 772.914 -4.75265 
544 1 1 -0.0140218 -0.0253028 0.00874967 0 0 0 -1.1628e-05 8.60908e-06 2.11593e-06 8.87488e-07 -2.39382e-06 -4.53841e-06 -0.000353733 0.000166041 4.84664e-05 0.004 377.354 6.40019 
29 1 1 -0.00450631 -0.0263793 0.00900733 0 0 0 -1.28358e-05 5.31565e-06 4.41055e-07 3.17673e-06 -6.23758e-06 -5.83899e-06 -0.000173836 -0.000245511 -0.000218543 0.004 472.258 5.0398 
248 1 1 0.00349899 -0.0278426 0.00763312 0 0 0 -8.3492e-06 8.98687e-07 -2.5522e-06 2.67888e-06 -4.15465e-06 -4.88561e-07 -0.00090352 -0.000310177 0.000536078 0.004 602.555 -2.8483 
79 1 1 0.035837 -0.0289489 0.00959649 0 0 0 -1.48248e-06 9.06328e-07 3.25057e-06 1.41995e-06 -2.05255e-06 -1.93271e-06 -0.000666167 0.000980895 -0.000160409 0.004 791.884 -2.30257 
291 1 1 -0.00458875 -0.0173975 0.00909526 0 0 0 -1.17807e-05 7.21101e-06 3.90769e-07 4.78932e-06 -8.62525e-06 -2.10118e-06 -0.000355994 9.09922e-05 -0.000622416 0.004 492.215 2.72932 
891 1 1 0.00373486 -0.015528 0.00632512 0 0 0 -7.21034e-06 2.90691e-06 3.45405e-07 2.6025e-06 -8.00153e-06 -2.92084e-06 -0.000224127 0.000386 -0.000497112 0.004 599.494 -2.20801 
870 1 1 0.0138322 -0.0156363 0.00831022 0 0 0 -8.75158e-06 -1.52032e-06 -1.66473e-06 5.7669e-06 -9.1536e-06 -8.68386e-06 -0.000112883 -0.000402017 -0.00064704 0.004 717.146 -6.64136 
777 1 1 0.034969 -0.018778 0.00771002 0 0 0 -1.22087e-06 9.26699e-07 9.62223e-07 4.13292e-06 -5.21468e-06 -4.37348e-06 -0.000350914 0.000451143 -7.17626e-05 0.004 795.353 -1.42065 
837 1 1 -0.029449 -0.0146727 0.00803325 0 0 0 -6.10713e-06 5.74149e-06 3.18869e-06 3.08101e-07 -6.91507e-07 6.53975e-07 -0.000983531 0.000473842 0.000849847 0.004 310.508 2.34612 
445 1 1 -0.0181359 -0.0138493 0.00995278 0 0 0 -1.2296e-05 1.23845e-05 6.19929e-06 7.3669e-06 -2.52432e-06 -2.73903e-06 -0.000756481 -0.000171324 -0.000225899 0.004 349.179 5.53488 
783 1 1 0.00485891 -0.00860651 0.00993772 0 0 0 -6.49007e-06 3.62403e-06 -1.24007e-06 1.14666e-05 -1.07803e-05 -4.51652e-06 -0.000105092 -0.000145684 0.000340189 0.004 619.298 -3.61196 
615 1 1 -0.0350999 -0.000758702 0.0095518 0 0 0 1.09434e-07 6.93704e-06 6.16373e-06 3.25281e-06 -9.96919e-07 2.28387e-06 -0.000661445 -0.000284692 0.000630557 0.004 304.174 1.18366 
476 1 1 -0.0459522 0.00262139 0.00988977 0 0 0 1.05478e-06 1.6565e-06 1.7953e-06 8.8959e-07 -1.35828e-07 1.30814e-06 -5.24833e-05 -3.65852e-05 -2.94176e-05 0.004 300.482 0.234325 
16 1 1 -0.0210456 0.00169441 0.00830926 0 0 0 -2.92353e-06 9.44048e-06 5.56625e-06 6.29973e-06 -2.89827e-06 1.47891e-06 -0.000319005 0.000103967 0.000218524 0.004 333.383 4.75225 
303 1 1 0.0459492 0.00350464 0.00962658 0 0 0 3.56698e-07 -4.04295e-07 -1.85437e-06 2.40576e-06 -3.75384e-07 -2.57689e-06 9.25946e-05 -0.000458445 0.000102306 0.004 799.347 -0.304321 
523 1 1 -0.0389797 0.00803081 0.00932859 0 0 0 1.68095e-06 4.43228e-06 3.74268e-06 2.70332e-06 -8.22454e-07 2.73313e-06 -0.000376619 0.000442189 8.89675e-05 0.004 302.209 0.754862 
704 1 1 -0.010798 0.00519226 0.0074386 0 0 0 -3.0631e-06 8.23445e-06 3.0759e-06 9.11275e-06 -5.27512e-06 -2.61405e-07 -0.00051779 0.000334253 -0.00054488 0.004 403.806 6.14564 
454 1 1 0.00101173 0.00715936 0.00933958 0 0 0 -2.00995e-06 5.91595e-06 1.42191e-09 1.29378e-05 -7.61277e-06 -3.59089e-06 -0.000528343 0.000376604 -0.000524485 0.004 554.638 -0.0439548 
31 1 1 0.0102164 0.00547595 0.00832595 0 0 0 -2.42538e-06 2.91787e-06 -6.73075e-07 1.32228e-05 -8.89925e-06 -5.57611e-06 -8.08954e-05 -6.13959e-05 -0.000508027 0.004 677.704 -5.73338 
135 1 1 0.0188885 0.00749173 0.00960786 0 0 0 1.4573e-06 3.70462e-06 -4.06119e-06 9.82268e-06 -8.18683e-06 -2.87468e-06 -0.000641429 0.00139597 -0.000712007 0.004 768.684 -5.30708 
712 1 1 0.0281138 0.00743268 0.00998858 0 0 0 2.60258e-06 2.545e-06 -6.9002e-06 8.23069e-06 -5.44204e-06 -3.77144e-06 -0.00161756 0.000678999 -2.05101e-05 0.004 788.098 -2.84436 
210 1 1 0.0394934 0.00814607 0.00989882 0 0 0 2.70073e-06 4.20544e-07 -3.3135e-06 5.44632e-06 -2.78747e-06 -1.90399e-06 0.000156368 0.000667477 -0.000127953 0.004 798.215 -0.674363 
651 1 1 -0.0437987 0.0143398 0.00823565 0 0 0 6.39634e-07 1.74657e-06 1.12061e-06 1.36156e-06 -5.92641e-08 1.40322e-06 -0.000103642 -0.000102255 0.00025441 0.004 301.122 0.473451 
621 1 1 0.0437181 0.0147846 0.00900766 0 0 0 1.67739e-06 2.72533e-07 -2.13343e-06 2.39797e-06 -1.48988e-06 -9.82623e-07 0.000237736 -0.0002315 8.69287e-05 0.004 797.848 -0.761723 
726 1 1 -0.0257657 0.0199972 0.00692823 0 0 0 3.44384e-07 3.99255e-06 3.52075e-07 2.72128e-06 -1.02756e-06 1.75079e-06 0.000529905 0.000534441 -2.74983e-05 0.004 315.198 3.29226 
230 1 1 -0.0084747 0.024595 0.00973774 0 0 0 1.89372e-06 7.49804e-06 -7.90203e-07 5.31364e-06 -2.34554e-06 1.03933e-06 -0.000789435 0.000284799 -0.000384783 0.004 445.611 5.84236 
320 1 1 -0.0017127 0.020405 0.00979385 0 0 0 1.31866e-06 6.72326e-06 -1.87803e-06 5.66447e-06 -5.7835e-06 -1.78078e-08 -0.000420187 0.000458424 -9.19615e-05 0.004 519.495 3.24368 
7 1 1 0.012921 0.0224303 0.00918519 0 0 0 2.15534e-06 5.21464e-06 -4.60771e-06 4.70059e-06 -2.84878e-06 -1.40557e-06 0.000111424 0.00053428 0.000209243 0.004 705.602 -5.99325 
83 1 1 0.0214164 0.0239651 0.00888427 0 0 0 2.28544e-06 4.20038e-06 -4.5711e-06 4.2973e-06 -3.01231e-06 -1.43781e-06 0.000279141 0.00110836 0.000112527 0.004 767.729 -4.75996 
747 1 1 -0.0337321 0.0313835 0.00974071 0 0 0 9.49902e-07 2.36566e-06 -8.95831e-07 1.5071e-06 -8.49813e-07 1.92024e-06 -3.47129e-05 0.000378848 0.000244878 0.004 308.225 2.24134 
51 1 1 -0.0226192 0.0329654 0.00703449 0 0 0 1.57413e-06 3.19259e-06 -9.09558e-07 1.49715e-06 -3.25142e-07 1.34549e-06 0.000360144 -0.000495239 -0.000503052 0.004 317.736 3.99924 
116 1 1 -0.00940736 0.0391203 0.00809815 0 0 0 1.66277e-06 2.54182e-06 -9.52492e-07 7.22848e-07 -1.29601e-06 1.05641e-06 -0.000334642 0.000317088 0.000179043 0.004 446.763 5.89426 
205 1 1 -0.000560457 -0.0460776 0.0110172 0 0 0 -4.42969e-06 -2.78357e-07 -7.86703e-07 -7.58832e-07 -1.81363e-06 -4.73519e-06 -0.000422902 -0.000396047 0.000506614 0.004 537.521 3.73622 
836 1 1 0.00737985 -0.0454688 0.0106611 0 0 0 -4.17442e-06 -7.8116e-07 -1.29334e-06 1.84378e-07 -1.03004e-06 -2.99412e-06 -0.000457892 -0.00010187 0.000545839 0.004 625.522 -4.32228 
486 1 1 -0.0156916 -0.0402432 0.0103352 0 0 0 -5.97733e-06 1.69392e-06 -6.70285e-07 -1.39926e-06 -1.76987e-06 -4.70042e-06 0.000561947 -0.000368086 0.000723688 0.004 361.147 7.13257 
311 1 1 -0.00836811 -0.0439881 0.0106791 0 0 0 -8.28272e-06 3.83636e-07 -7.29638e-07 -2.0063e-06 -2.49668e-06 -5.21479e-06 -1.86358e-05 -0.00105967 0.000373156 0.004 406.22 9.48499 
447 1 1 0.0180551 -0.0423881 0.0118323 0 0 0 -3.78183e-06 4.59872e-07 2.57448e-08 5.49255e-07 -2.05221e-06 -2.55356e-06 -3.43887e-05 -0.000444303 0.000238565 0.004 721.529 -7.37049 
538 1 1 -0.0295743 -0.0353509 0.0149849 0 0 0 -3.2674e-06 4.44038e-06 2.76422e-06 -1.03643e-06 -4.36575e-07 -1.64867e-06 0.000225693 -0.000404601 0.000571239 0.004 313.59 3.1462 
279 1 1 0.011155 -0.0385417 0.0114153 0 0 0 -8.08317e-06 -1.6311e-07 -2.36797e-06 2.32231e-06 -3.27313e-06 -4.66894e-06 5.83871e-05 -0.000631734 0.000354475 0.004 672.096 -5.89102 
110 1 1 0.0250464 -0.0386627 0.0117242 0 0 0 -2.46151e-06 6.94537e-07 3.23137e-09 3.78664e-07 -1.9718e-06 -1.35299e-06 -0.000381902 8.60482e-05 6.63734e-05 0.004 760.235 -6.05575 
188 1 1 -0.0179041 -0.0321006 0.0101564 0 0 0 -9.4496e-06 7.55097e-06 2.61157e-06 -8.64107e-07 -1.44222e-06 -5.99176e-06 -0.000633006 -0.000448349 0.000753214 0.004 354.542 6.13815 
810 1 1 -0.0102601 -0.034451 0.0102037 0 0 0 -1.08077e-05 5.73682e-06 1.53182e-06 -2.66104e-07 -3.12623e-06 -7.0117e-06 -0.000496333 -0.00078492 0.000398524 0.004 412.144 6.40482 
412 1 1 -0.00316747 -0.0328805 0.0133527 0 0 0 -1.35163e-05 4.79995e-06 -5.445e-07 3.05672e-06 -6.59403e-06 -1.01001e-05 0.000186597 0.000516645 -0.000391845 0.004 490.368 3.52636 