ITEM: TIMESTEP
32800
ITEM: NUMBER OF ATOMS
891
ITEM: BOX BOUNDS mm mm mm
-0.05 0.05
-0.05 0.05
0 0.15
ITEM: ATOMS id type type x y z ix iy iz vx vy vz fx fy fz omegax omegay omegaz radius f_Temp[0] f_heatFlux[0] 
199 1 1 -0.00444377 -0.0458158 0.00397435 0 0 0 7.5773e-07 2.68065e-07 1.63224e-08 -3.15096e-07 2.51572e-07 3.34841e-07 -4.15706e-05 5.10511e-05 -0.000190444 0.004 477.08 3.73534 
873 1 1 -0.0201484 -0.0414789 0.0039016 0 0 0 1.90284e-07 -1.3607e-07 1.05309e-07 7.57649e-08 5.08332e-07 5.38552e-07 1.52051e-05 9.01626e-06 -1.47259e-05 0.004 381.086 5.1097 
485 1 1 -0.0126796 -0.0442534 0.00397264 0 0 0 5.97651e-07 -2.16927e-07 1.0295e-07 -1.54387e-07 2.79097e-07 3.67487e-07 1.55474e-05 5.53247e-05 -0.000157937 0.004 414.416 5.79297 
850 1 1 0.00335642 -0.0441759 0.00394115 0 0 0 6.46392e-07 4.85531e-07 5.53658e-08 -3.47762e-07 -4.99077e-08 2.36318e-07 -0.00011365 7.0343e-05 0.000114762 0.004 552.141 0.119538 
186 1 1 0.0114401 -0.0445988 0.00392827 0 0 0 3.29383e-07 8.27541e-08 1.20459e-07 -2.7732e-07 1.58065e-07 -2.70444e-08 -4.04368e-06 0.000110437 -5.79354e-05 0.004 658.161 -4.23782 
560 1 1 0.018969 -0.0420006 0.00394676 0 0 0 2.45838e-07 -5.94601e-08 3.15466e-08 -2.01522e-07 5.84813e-08 8.59297e-08 4.97538e-05 -4.72613e-05 1.41082e-05 0.004 696.345 -4.86119 
102 1 1 -0.0147501 -0.0357331 0.00386311 0 0 0 5.9061e-07 -7.74562e-07 7.10502e-08 2.98257e-08 1.0509e-06 9.9065e-07 9.60595e-05 4.86918e-05 -0.000119062 0.004 408.877 4.41692 
88 1 1 -0.00730761 -0.0383837 0.00392727 0 0 0 7.51692e-07 -1.12798e-08 -4.59775e-08 -9.01688e-08 5.20968e-07 3.95794e-07 2.16603e-05 8.30465e-05 0.000338028 0.004 459.195 3.66756 
776 1 1 0.00520385 -0.0354368 0.00395023 0 0 0 1.14844e-06 5.28603e-07 6.09729e-07 -3.33362e-08 2.18502e-07 1.20269e-08 -8.09632e-05 0.000136749 -9.74051e-05 0.004 605.725 -1.81544 
410 1 1 0.0130236 -0.0368131 0.00392572 0 0 0 8.04342e-07 -5.1164e-08 1.98676e-07 -1.4839e-07 3.28209e-07 2.17949e-08 3.39219e-05 8.74071e-05 -8.76344e-05 0.004 665.473 -3.96897 
282 1 1 0.025876 -0.0381319 0.00388527 0 0 0 4.01627e-07 3.11392e-07 9.50744e-08 -1.8652e-07 1.54753e-07 2.17093e-07 -6.53152e-05 0.000103877 -4.70823e-05 0.004 738.973 -4.742 
682 1 1 -0.0302016 -0.0348779 0.00393465 0 0 0 2.37226e-08 -1.17976e-07 -1.37672e-08 3.66447e-07 -1.54576e-07 3.63113e-07 -7.58938e-06 -1.80995e-05 4.26146e-05 0.004 335.6 3.61126 
251 1 1 -0.0224189 -0.0338476 0.00392332 0 0 0 4.29431e-07 -2.68926e-07 2.64132e-08 1.15242e-08 5.17091e-07 6.52596e-07 2.04733e-05 4.20464e-05 -0.000112102 0.004 367.286 4.48387 
770 1 1 -0.00204753 -0.0321408 0.00393964 0 0 0 1.26781e-06 2.68027e-07 5.43144e-08 1.52041e-07 2.53243e-07 -3.19036e-07 -0.000261526 3.15521e-05 0.000304173 0.004 542.642 0.414736 
883 1 1 0.018166 -0.0307536 0.00390023 0 0 0 9.858e-07 3.18912e-07 -6.75732e-08 -1.64318e-07 5.28294e-07 4.44785e-07 -0.000106689 0.000126365 0.000101519 0.004 707.419 -4.46246 
838 1 1 0.0320336 -0.033109 0.00396072 0 0 0 5.52185e-07 2.19889e-07 -3.88118e-07 -4.19381e-07 2.92958e-07 6.61405e-07 -0.000116343 9.66213e-05 -0.000105408 0.004 763.653 -3.98204 
617 1 1 -0.0372521 -0.0271215 0.00391646 0 0 0 6.0657e-09 -2.37881e-07 -5.26561e-08 2.92322e-07 -2.70396e-08 3.46587e-07 1.07815e-05 1.33795e-05 -1.76363e-05 0.004 314.962 2.34915 
824 1 1 -0.0292998 -0.0270298 0.00392984 0 0 0 5.87481e-08 -6.56077e-07 3.59774e-08 6.28562e-07 2.4493e-07 4.48911e-07 7.00791e-05 -2.89097e-05 -0.000114701 0.004 326.626 3.13412 
571 1 1 -0.0202615 -0.0262215 0.00393285 0 0 0 1.21884e-06 -7.86637e-07 -2.35375e-07 -4.27062e-07 8.0308e-07 7.42797e-07 7.96062e-05 0.000239689 -3.30547e-05 0.004 363.895 4.41228 
861 1 1 -0.00959294 -0.0297304 0.00389698 0 0 0 1.53386e-06 -1.62237e-06 1.05378e-07 -5.29754e-08 1.45954e-06 9.43293e-07 0.000211915 0.000252332 -9.18437e-05 0.004 452.485 3.31996 
434 1 1 0.0103455 -0.0293807 0.00393742 0 0 0 1.48167e-06 -1.29682e-07 1.07531e-07 -1.65534e-07 5.85009e-07 -1.95713e-07 -5.66712e-05 0.000106218 -4.10108e-05 0.004 653.968 -3.31634 
103 1 1 0.0311547 -0.0252347 0.00394362 0 0 0 6.45327e-07 7.72751e-08 -4.82722e-07 -2.74455e-07 8.21761e-07 9.43523e-07 6.08805e-05 -2.72212e-05 7.98521e-05 0.004 769.683 -3.44038 
769 1 1 -0.041344 -0.0202818 0.0039823 0 0 0 8.95549e-08 -2.6973e-07 -2.53697e-07 1.01744e-07 -1.10858e-07 6.57067e-07 -5.75008e-05 4.15522e-05 -6.09093e-05 0.004 308.872 1.7083 
94 1 1 -0.0333714 -0.0202163 0.0039437 0 0 0 1.82594e-07 -6.72924e-07 -1.83708e-07 1.31006e-07 2.35217e-07 7.11382e-07 2.33113e-05 -4.51954e-05 -3.70512e-05 0.004 317.778 2.4411 
40 1 1 -0.025401 -0.0201464 0.00391761 0 0 0 4.8616e-07 -1.19933e-06 -1.26768e-07 -1.2009e-07 5.70914e-07 7.06669e-07 -6.04564e-05 0.000114789 6.86593e-05 0.004 336.804 3.43913 
19 1 1 -0.00865071 -0.0218804 0.00393966 0 0 0 2.19529e-06 -2.24992e-06 6.5622e-08 -2.12151e-06 2.30933e-06 9.4151e-07 0.000129098 0.000506168 8.34921e-05 0.004 454.745 3.27262 
442 1 1 -0.000436959 -0.02185 0.00393583 0 0 0 2.4833e-06 -2.57494e-06 2.53377e-07 -1.25132e-06 2.95105e-06 1.0252e-06 0.000488222 0.0004071 0.000357361 0.004 551.923 0.200831 
259 1 1 0.00753192 -0.0220002 0.00392511 0 0 0 1.87509e-06 -9.24332e-07 1.96775e-07 -3.03415e-07 1.27872e-06 -4.36371e-08 0.00018955 0.000231632 0.000104495 0.004 637.332 -2.72803 
512 1 1 0.0153883 -0.0232356 0.00397834 0 0 0 1.36698e-06 4.45328e-07 1.19561e-07 -5.19556e-07 1.02349e-06 2.60043e-07 -4.2472e-05 -6.84544e-05 0.00016598 0.004 701.342 -4.0052 
470 1 1 0.0232616 -0.0243589 0.00390814 0 0 0 1.06486e-06 5.6842e-07 -2.01887e-07 -4.37712e-07 1.32949e-06 1.00187e-06 -0.000123588 0.000198447 -0.000177271 0.004 743.877 -4.23818 
451 1 1 0.0390293 -0.0244875 0.00392048 0 0 0 5.02998e-07 2.4923e-07 -1.38609e-08 -4.24998e-07 3.79023e-08 2.74532e-07 -5.01007e-05 7.86495e-05 -5.75145e-05 0.004 783.841 -2.43277 
531 1 1 -0.0164595 -0.0192004 0.00396125 0 0 0 1.43323e-06 -1.409e-06 -3.55314e-08 -2.74907e-06 2.84636e-06 -3.37575e-07 0.000274105 0.0004128 -0.000303764 0.004 374.171 4.71327 
229 1 1 0.0202059 -0.0169136 0.00386874 0 0 0 1.4672e-06 6.40875e-07 -2.4697e-08 -2.64401e-07 1.8672e-06 1.54398e-06 -8.17605e-05 0.000218256 -1.71716e-05 0.004 732.514 -4.02767 
734 1 1 0.0280521 -0.017942 0.00394396 0 0 0 1.08204e-06 4.04056e-07 -5.55058e-07 -4.28132e-07 1.46075e-06 1.64167e-06 -0.000109441 0.000123866 -0.000175265 0.004 768.037 -3.23343 
635 1 1 0.0425981 -0.0174495 0.00392191 0 0 0 -1.53419e-08 1.88459e-07 1.05337e-07 -4.98539e-07 8.57893e-09 4.14625e-07 3.09449e-05 -2.75935e-05 0.000111316 0.004 793.312 -1.34864 
87 1 1 -0.0448224 -0.0104639 0.0039142 0 0 0 -1.09311e-07 -3.50482e-07 -1.91547e-07 2.95043e-07 3.55768e-07 3.2778e-07 4.77856e-05 2.87965e-06 -1.07533e-05 0.004 303.878 0.91681 
406 1 1 -0.0373951 -0.013391 0.00396016 0 0 0 9.93336e-08 -9.26079e-07 -5.81505e-07 6.88191e-07 1.44739e-07 4.65932e-07 8.0173e-05 4.96584e-05 7.03777e-06 0.004 308.474 1.56131 
224 1 1 -0.023058 -0.0126019 0.00387961 0 0 0 6.43729e-07 -2.69227e-06 -6.43566e-07 -5.26182e-07 1.07867e-06 4.86224e-07 0.000420732 0.000255917 -0.00022212 0.004 350.033 3.54907 
751 1 1 -0.0102996 -0.0141546 0.00396945 0 0 0 1.40013e-06 -2.68542e-06 -8.89947e-07 -2.55642e-06 2.66523e-06 5.92571e-07 -4.31181e-05 -9.02533e-05 9.15059e-05 0.004 430.769 3.55749 
622 1 1 -0.00273387 -0.0117409 0.00388523 0 0 0 1.79063e-06 -2.45129e-06 -1.28535e-06 -9.66917e-07 2.32007e-06 1.20908e-06 0.000323134 0.000311372 6.11126e-05 0.004 507.27 1.35732 
128 1 1 0.00951068 -0.010685 0.00388457 0 0 0 1.50334e-06 -8.89079e-07 -4.58806e-07 -3.94483e-07 2.52126e-06 1.80675e-06 0.000125667 7.81484e-05 0.000346006 0.004 663.576 -3.36513 
68 1 1 0.0262808 -0.010211 0.00395437 0 0 0 1.20183e-06 4.57377e-07 1.18233e-07 -1.29269e-06 1.76998e-06 1.71077e-06 -3.29478e-05 0.000131402 0.000201137 0.004 771.323 -3.08263 
791 1 1 0.0340945 -0.0118532 0.003928 0 0 0 1.06539e-06 4.29223e-07 7.35954e-07 -1.06829e-06 1.24159e-06 1.03998e-06 -9.18319e-05 0.000160691 -0.000325746 0.004 787.973 -1.96192 
354 1 1 -0.0380748 -0.00550396 0.00392042 0 0 0 -7.68924e-07 -1.07174e-06 -9.86746e-07 -2.49892e-07 -2.5795e-07 2.32486e-07 3.04039e-05 -0.000208599 5.38588e-05 0.004 307.613 1.37608 
725 1 1 -0.0304901 -0.00800531 0.0039252 0 0 0 -1.32063e-07 -1.16373e-06 -3.08858e-07 3.1269e-07 9.70296e-07 4.009e-07 -3.55128e-05 -1.02559e-05 0.000176824 0.004 316.205 2.19787 
353 1 1 -0.0161288 -0.0087981 0.00391143 0 0 0 6.48226e-07 -3.55889e-06 -6.81879e-07 -1.14767e-06 2.52053e-06 1.52286e-08 0.00070464 3.07571e-05 0.00012003 0.004 388.872 4.27123 
391 1 1 -0.0085766 -0.00639749 0.00391357 0 0 0 9.73166e-07 -2.81113e-06 -1.05083e-06 -9.09471e-07 2.24531e-06 3.11577e-07 0.000149294 0.000160165 6.33525e-05 0.004 450.909 2.99978 
683 1 1 0.0173533 -0.00945629 0.00390985 0 0 0 1.1953e-06 4.68776e-07 -1.26599e-07 -6.46674e-07 1.95028e-06 1.64552e-06 -5.62626e-05 6.60151e-05 7.80379e-05 0.004 722.97 -4.09743 
690 1 1 0.0385537 -0.00520142 0.00390021 0 0 0 5.16114e-07 9.90845e-07 9.6924e-07 -4.94952e-07 -1.52069e-07 1.64013e-06 -0.000190607 0.000131414 0.000203016 0.004 793.781 -1.1993 
10 1 1 0.0449635 -0.00990888 0.00397399 0 0 0 6.13763e-08 3.92036e-07 3.9149e-07 -3.20134e-07 -1.02934e-07 4.83912e-07 -4.01775e-06 3.87372e-05 -0.000160737 0.004 796.38 -0.866164 
402 1 1 -0.0460169 -0.00264172 0.00392182 0 0 0 -4.31002e-07 -3.37424e-07 -3.79041e-07 -4.46268e-07 -3.76798e-09 -6.74201e-09 6.97844e-06 -2.31825e-05 -2.55399e-05 0.004 304.227 0.920932 
761 1 1 -0.0294744 -0.000168338 0.00392563 0 0 0 -4.10386e-07 -1.87251e-06 -1.2437e-06 -1.13744e-06 3.26029e-07 1.157e-07 0.000145592 -5.00244e-05 -9.61354e-05 0.004 325.05 2.66069 
293 1 1 -0.0229324 -0.00466873 0.0039595 0 0 0 7.93105e-09 -2.96171e-06 -5.54921e-07 -1.55557e-06 7.52061e-07 1.09887e-07 2.85668e-05 -0.00014745 4.65984e-05 0.004 348.44 3.59209 
384 1 1 -0.0147374 -0.000914201 0.0039815 0 0 0 0.000482455 0.000450484 -7.69744e-07 -1.51466e-07 -9.9718e-07 3.23852e-06 -0.11277 0.120874 0.176243 0.004 302.583 0 
378 1 1 0.00130611 -0.00490407 0.00392905 0 0 0 1.05223e-06 -1.6734e-06 -9.83296e-07 -1.33985e-06 1.77334e-06 4.00671e-07 0.000103238 0.000180224 0.000290931 0.004 556.683 -0.258971 
390 1 1 0.0103707 -0.00276532 0.00396885 0 0 0 1.5391e-07 -4.39568e-07 -5.56074e-08 -1.55751e-06 2.49141e-06 1.17631e-06 -3.54742e-05 -7.08255e-05 0.000276961 0.004 681.251 -4.17156 
411 1 1 0.0223603 -0.00329286 0.00397624 0 0 0 1.75012e-06 -1.51624e-07 4.87123e-07 -6.45237e-07 1.75329e-06 1.84419e-06 0.000175211 0.000188506 -0.00033797 0.004 757.102 -3.81121 
342 1 1 0.0307348 -0.00361666 0.00397528 0 0 0 5.25589e-07 6.04377e-07 5.51547e-07 -1.23565e-06 1.35999e-06 1.00254e-06 1.34821e-05 -2.13118e-05 -8.70954e-05 0.004 787.639 -1.94157 
262 1 1 0.0460221 -0.00206505 0.00395832 0 0 0 4.17856e-08 5.25686e-09 4.1414e-07 -5.62638e-07 -2.48475e-07 4.51139e-07 5.01874e-05 1.71916e-05 0.000104508 0.004 796.56 -0.831468 
261 1 1 -0.0398214 0.002246 0.00393476 0 0 0 -4.43925e-07 -9.11523e-07 -8.90632e-07 -8.49932e-07 -1.66111e-07 7.42727e-08 6.38046e-05 6.8641e-05 -0.000113153 0.004 308.177 1.36352 
666 1 1 -0.00454675 0.000451421 0.00395604 0 0 0 8.70238e-07 -2.73745e-06 -8.68159e-07 -8.16345e-07 1.76547e-06 3.14826e-07 0.000222538 6.697e-05 -6.82267e-05 0.004 494.365 1.95651 
815 1 1 0.00434369 0.00243559 0.0039271 0 0 0 3.01443e-07 -1.83358e-06 -8.48334e-07 -1.4792e-06 1.69906e-06 5.52988e-07 0.000241139 -5.3855e-05 -0.000125308 0.004 609.107 -2.0236 
306 1 1 0.01637 0.00247665 0.00395808 0 0 0 1.3038e-06 -1.02282e-06 2.92511e-07 -1.67316e-06 2.74433e-06 1.59526e-06 0.000310254 0.000251345 -0.00056263 0.004 730.466 -4.61733 
178 1 1 0.0241042 0.00444175 0.00386112 0 0 0 1.23956e-06 -5.16267e-07 7.183e-07 -1.61086e-06 1.63767e-06 1.82435e-06 -4.51124e-05 0.000136217 0.000492021 0.004 759.856 -3.62456 
862 1 1 0.0320656 0.00423367 0.00393096 0 0 0 7.89829e-07 4.93691e-07 7.17889e-07 -1.47314e-06 1.77103e-06 1.38545e-06 -3.66435e-05 0.0001187 -6.74615e-05 0.004 783.138 -2.26079 
661 1 1 0.0398756 0.0029147 0.00394679 0 0 0 1.63479e-07 -1.60703e-07 7.01595e-07 -9.78715e-07 -1.79586e-07 9.76511e-07 0.00014259 -3.62583e-05 -8.80733e-05 0.004 793.261 -1.2625 
677 1 1 -0.0453782 0.00788539 0.00393641 0 0 0 -2.9166e-07 -4.22609e-07 -2.96509e-07 -2.97482e-07 -1.02619e-08 -1.17466e-07 6.98719e-05 -3.7325e-05 -2.84212e-06 0.004 304.331 0.955316 
12 1 1 -0.0333161 0.0067196 0.00393696 0 0 0 -2.00796e-07 -1.57564e-06 -7.75258e-07 -8.52405e-07 -1.50101e-07 -1.23138e-07 0.000253877 -0.000102191 -8.40717e-05 0.004 318.197 2.21243 
420 1 1 -0.0254 0.00664838 0.00392687 0 0 0 1.99534e-07 -2.72033e-06 -9.50851e-07 -1.26814e-06 1.49332e-07 -9.18639e-08 0.000402286 0.000164904 -0.000173844 0.004 340.15 3.25035 
654 1 1 -0.0175134 0.00720947 0.00387212 0 0 0 2.86443e-07 -3.48994e-06 -1.82613e-06 -1.53135e-06 -1.53122e-07 -2.82338e-07 0.000625231 7.98042e-05 -6.31743e-05 0.004 378.832 3.90947 
145 1 1 -0.00454406 0.00836537 0.00386311 0 0 0 5.73308e-07 -2.76451e-06 -1.43247e-06 -1.58173e-06 1.09501e-06 1.09927e-07 0.000227074 7.51316e-05 0.000198827 0.004 492.719 2.12789 
624 1 1 0.0451449 0.00890653 0.00390656 0 0 0 -1.36529e-07 -1.12522e-07 5.64248e-07 -8.29436e-07 -2.93428e-07 6.54038e-07 1.74065e-05 1.1307e-05 0.000109005 0.004 795.515 -0.998814 
613 1 1 -0.0372991 0.0135339 0.00384344 0 0 0 -6.01709e-07 -1.11446e-06 -8.66126e-07 -4.95305e-07 -1.66716e-07 -1.78589e-07 7.88201e-05 -0.000168046 8.23775e-05 0.004 310.616 1.70258 
265 1 1 -0.0293062 0.0135429 0.00396372 0 0 0 -2.45523e-08 -1.68063e-06 -2.7791e-07 -6.5009e-07 -1.31565e-07 -2.46008e-07 -6.35429e-05 -4.71274e-05 -1.58718e-05 0.004 326.909 2.93604 
273 1 1 -0.0213694 0.0141274 0.00392939 0 0 0 2.24163e-07 -2.38077e-06 -3.74061e-07 -4.95523e-07 -2.93679e-07 2.24278e-08 0.000326071 1.78584e-05 3.48528e-05 0.004 350.506 3.81974 
492 1 1 -0.01145 0.0123712 0.00398079 0 0 0 7.19734e-07 -3.06042e-06 -1.00783e-06 -8.75599e-07 -3.53385e-07 -1.0988e-07 0.000227478 0.000197667 -4.1729e-05 0.004 427.058 4.36476 
234 1 1 0.00585286 0.010393 0.0039289 0 0 0 3.46217e-07 -2.15673e-06 -7.37746e-07 -2.02822e-06 1.37919e-06 9.79954e-07 0.000308063 -5.21098e-05 0.000192214 0.004 602.476 -1.44424 
160 1 1 0.0142843 0.0106356 0.00390956 0 0 0 3.87872e-07 -1.76024e-06 -1.54949e-07 -2.16893e-06 1.41305e-06 1.51176e-06 0.000312921 -0.000121429 0.00023799 0.004 696.545 -3.73051 
484 1 1 0.0220893 0.0120738 0.00390118 0 0 0 3.925e-07 -1.37876e-06 7.15254e-07 -1.66193e-06 1.14733e-06 1.12454e-06 0.000236676 0.000177379 -0.000161315 0.004 746.848 -3.72809 
743 1 1 0.0300184 0.0126216 0.00398126 0 0 0 1.70985e-07 -1.22829e-06 1.21538e-07 -1.05396e-06 -9.92729e-07 4.63157e-07 0.000188506 -5.11902e-05 0.000118208 0.004 772.215 -2.92486 
514 1 1 0.0379537 0.0130186 0.00386905 0 0 0 -3.07673e-07 -4.98681e-07 1.05078e-06 -9.36392e-07 -3.2532e-07 8.48524e-07 0.000113406 -0.000109001 5.98939e-05 0.004 788.041 -1.82873 
530 1 1 -0.0159002 0.0198648 0.00392796 0 0 0 2.14882e-07 -1.59071e-06 -1.25478e-06 -7.18714e-07 -1.97795e-07 -3.44825e-07 0.00020729 0.000255254 1.09735e-05 0.004 378.354 4.23246 
227 1 1 -0.00736502 0.0192084 0.00396595 0 0 0 3.66606e-07 -2.22036e-06 -1.32397e-06 -1.40308e-06 4.90924e-07 1.02268e-07 0.000126776 2.41767e-05 0.0002212 0.004 467.105 3.43751 
392 1 1 -0.000498619 0.0151513 0.00394446 0 0 0 3.17837e-07 -2.37084e-06 -9.92361e-07 -1.5946e-06 1.17272e-06 4.037e-07 0.000242829 -5.25002e-05 -8.0149e-05 0.004 533.529 1.01234 
493 1 1 0.0098584 0.0172531 0.00394646 0 0 0 2.61552e-07 -2.01863e-06 1.681e-07 -1.84969e-06 8.73564e-07 1.04882e-06 0.000219183 -7.97065e-05 -0.000211308 0.004 647.611 -2.60721 
34 1 1 0.0176357 0.0187852 0.00394098 0 0 0 5.2095e-07 -2.46415e-06 8.81421e-07 -1.56579e-06 8.02335e-08 1.46624e-06 0.000550862 4.11415e-05 0.000122449 0.004 708.992 -3.63433 
206 1 1 0.0255397 0.0192353 0.00396992 0 0 0 3.32353e-07 -1.45227e-06 5.76112e-07 -1.0655e-06 -5.55515e-08 1.17734e-06 0.000137634 0.000173152 0.000132411 0.004 753.936 -3.4774 
104 1 1 0.0334175 0.0199346 0.00389649 0 0 0 -2.71369e-07 -8.99499e-07 7.44604e-07 -1.06387e-06 1.68966e-07 7.2511e-07 0.000154 -0.000166654 -3.81114e-06 0.004 776.927 -2.68594 
809 1 1 -0.0412058 0.0204949 0.00395498 0 0 0 -2.39364e-07 -6.06561e-07 -4.34208e-07 -2.98593e-07 -6.02651e-08 -2.67143e-07 0.000105852 3.87056e-05 -7.59663e-05 0.004 306.726 1.39787 
773 1 1 -0.0331523 0.0204531 0.00393522 0 0 0 -5.56473e-07 -1.09044e-06 -1.23784e-06 -7.1263e-07 -2.15579e-07 -9.831e-07 0.000114082 -0.000112244 -2.4398e-05 0.004 318.98 2.62825 
792 1 1 0.00347678 0.0219735 0.00392105 0 0 0 2.29068e-07 -1.89936e-06 -1.84336e-07 -1.60302e-06 1.02322e-06 4.47834e-07 0.000157251 1.03914e-05 0.000107742 0.004 584.893 -0.836449 
718 1 1 0.0413199 0.0203659 0.00392988 0 0 0 -1.79577e-07 -3.72304e-07 4.86646e-07 -6.23896e-07 9.44518e-09 4.27844e-07 4.10393e-05 5.44669e-05 7.08669e-05 0.004 788.069 -1.93062 
101 1 1 -0.0371146 0.0272995 0.00390402 0 0 0 -3.4657e-07 -5.46909e-07 -2.99978e-07 -5.7642e-07 -3.03474e-07 -2.01193e-07 0.00011417 -5.16395e-05 -2.61441e-05 0.004 313.678 2.22687 
246 1 1 -0.0290567 0.0272807 0.00398271 0 0 0 -5.70097e-07 -9.78822e-07 -6.24719e-07 -5.9801e-07 -7.59388e-07 -5.6457e-07 0.000125182 4.23541e-05 5.75241e-05 0.004 323.067 3.06962 
331 1 1 -0.0212281 0.0257798 0.00390019 0 0 0 -3.24141e-07 -1.16054e-06 -1.02565e-06 -4.22204e-07 -4.61264e-07 -4.84217e-07 0.00016299 -0.000176189 7.74841e-05 0.004 351.719 3.8901 
846 1 1 -0.0134708 0.0274168 0.0039748 0 0 0 -1.43195e-07 -9.78077e-07 -6.19881e-07 -1.01113e-06 2.19632e-07 -1.1576e-07 0.000121336 5.51975e-05 1.46319e-05 0.004 400.118 3.89035 
348 1 1 -0.00329915 0.0260612 0.00393374 0 0 0 -1.2946e-07 -1.65203e-06 -7.81801e-07 -1.43928e-06 5.66545e-07 1.36854e-08 0.000178537 -0.000145618 6.87782e-06 0.004 514.854 1.55266 
786 1 1 0.00840354 0.0281551 0.00389684 0 0 0 2.42647e-08 -1.86959e-06 1.68498e-07 -1.34515e-06 7.03675e-07 3.78049e-07 0.000328582 -2.29982e-05 -0.000102243 0.004 631.694 -2.47552 
316 1 1 0.0162833 0.0272928 0.00390629 0 0 0 2.95637e-07 -1.89302e-06 2.82409e-07 -1.14337e-06 1.1498e-07 5.41822e-07 0.000355865 7.4597e-05 0.000141923 0.004 703.527 -4.11641 
495 1 1 0.0288861 0.0264618 0.00396715 0 0 0 -2.04987e-07 -9.73895e-07 4.10625e-07 -1.05643e-06 1.22303e-07 5.81894e-07 8.91667e-05 -7.0773e-05 2.84063e-05 0.004 766.863 -3.45573 
863 1 1 0.0367263 0.0277633 0.00392936 0 0 0 -1.49278e-07 -4.32458e-07 2.94061e-07 -6.16079e-07 7.43454e-08 2.59835e-07 6.0158e-05 8.22005e-07 4.36222e-05 0.004 783.327 -2.54613 
511 1 1 -0.00761834 0.0327132 0.00388553 0 0 0 -4.03231e-08 -1.04956e-06 -6.60867e-07 -1.05856e-06 6.89403e-07 4.3027e-08 0.00010586 3.64902e-05 -5.34282e-05 0.004 479.096 2.44161 
722 1 1 0.00164033 0.0322874 0.00396635 0 0 0 -4.07884e-09 -1.29482e-06 -1.43846e-07 -1.02562e-06 5.50643e-07 2.69793e-07 4.54903e-05 -7.53073e-05 -3.55723e-05 0.004 567.247 -0.445112 
2 1 1 0.0229311 0.031696 0.00396243 0 0 0 -7.28666e-08 -8.92984e-07 2.78053e-07 -9.90657e-07 1.50301e-07 4.87763e-07 9.20884e-05 1.46092e-05 2.93878e-05 0.004 738.744 -4.57277 
254 1 1 0.0304603 0.0344476 0.0039815 0 0 0 0.000481608 -0.000706171 5.21145e-09 3.28272e-13 -4.7483e-13 -7.59127e-09 0.176952 0.120681 -0.0211551 0.004 798.547 0 
257 1 1 -0.0296322 0.0352231 0.00395613 0 0 0 -6.65456e-07 -5.51239e-07 -2.31244e-07 -1.8556e-07 -3.79549e-07 -8.97478e-08 7.3689e-05 -0.000115699 -0.000183412 0.004 324.631 3.40315 
582 1 1 -0.0157655 0.0356205 0.00393205 0 0 0 -1.68115e-06 -1.88545e-06 -5.89818e-07 -6.71303e-07 1.84996e-07 -5.52787e-07 0.000534474 -0.000370655 -0.000421513 0.004 365.703 4.95541 
255 1 1 -0.00267124 0.038932 0.00391148 0 0 0 1.73847e-08 -9.61169e-07 -1.59646e-07 -9.43934e-07 4.36454e-07 2.30956e-07 0.000191626 -3.21524e-05 -8.07754e-06 0.004 518.195 1.21664 
887 1 1 0.00812084 0.0373183 0.00392889 0 0 0 2.11131e-08 -9.82368e-07 -6.80337e-09 -7.26955e-07 1.80147e-07 4.76072e-07 0.000193852 -2.66856e-06 0.000125868 0.004 654.167 -4.03093 
719 1 1 0.0157853 0.0351951 0.00398363 0 0 0 -3.30157e-09 -8.49634e-07 3.675e-07 -6.90011e-07 9.70368e-08 3.20057e-07 -0.000139871 -3.29892e-05 -6.12834e-05 0.004 706.941 -4.84043 
21 1 1 0.0234243 0.0396338 0.00391497 0 0 0 -3.31966e-08 -2.80379e-07 2.98382e-08 -3.59235e-07 1.22775e-07 9.26943e-08 5.09843e-07 -7.69659e-06 -1.02503e-05 0.004 742.109 -4.7244 
325 1 1 -0.0222388 0.0402984 0.00393951 0 0 0 -6.8899e-07 -4.43185e-07 -4.32091e-07 -2.29526e-07 -2.6224e-07 -2.92743e-08 0.000157701 -0.000161682 -0.00019118 0.004 353.982 4.86254 
595 1 1 -0.014931 0.0435393 0.00398254 0 0 0 -1.96388e-08 -7.08434e-07 4.89243e-07 -2.97839e-07 -1.61786e-09 -1.60142e-07 -0.000102289 2.64976e-05 7.80677e-06 0.004 390.135 4.78505 
568 1 1 0.0162912 0.0430934 0.00392629 0 0 0 -5.63975e-08 -3.7886e-07 -4.76336e-08 -3.14837e-07 5.89133e-08 9.08902e-08 5.4617e-05 -1.97766e-05 5.02681e-05 0.004 703.24 -4.68459 
387 1 1 -0.00719691 0.045487 0.00389933 0 0 0 9.0386e-08 -4.00333e-07 -3.15516e-08 -4.29057e-07 2.67296e-07 -4.73911e-08 2.8355e-05 2.17419e-05 2.75783e-05 0.004 481.823 2.51019 
852 1 1 0.000758889 0.0460615 0.00397617 0 0 0 -3.05838e-08 -3.27522e-07 1.22561e-07 -2.53426e-07 1.12782e-07 1.28907e-07 -2.61827e-05 1.65882e-05 1.95775e-05 0.004 555.499 -0.255027 
157 1 1 0.00865318 0.0452492 0.00389824 0 0 0 -2.05344e-07 -4.39416e-07 7.09689e-08 -3.2777e-07 4.89284e-08 1.28865e-07 4.204e-05 -2.57997e-05 -2.33111e-05 0.004 642.351 -3.38445 
400 1 1 -0.024752 -0.0387964 0.00974418 0 0 0 -1.17723e-08 -1.44515e-07 -3.01822e-08 -6.06524e-08 6.01003e-07 6.92872e-07 -2.53678e-05 -6.56322e-05 6.00975e-05 0.004 350.454 4.67619 
606 1 1 -0.000653931 -0.0387266 0.00813891 0 0 0 1.10071e-06 3.96186e-07 4.98472e-07 -6.68184e-07 7.09827e-07 1.74941e-07 0.000266614 -0.0001002 -0.000188517 0.004 547.224 0.428093 
724 1 1 -0.0339143 -0.0311598 0.00984801 0 0 0 -2.09554e-07 -6.23219e-07 -1.50642e-08 5.6858e-08 2.98479e-07 7.42396e-07 0.000107149 -6.11918e-05 -1.84107e-05 0.004 321.302 2.85401 
183 1 1 0.0251947 -0.0311656 0.00751473 0 0 0 9.45547e-07 6.7227e-07 -1.44799e-07 -4.11658e-07 6.66616e-07 1.05213e-06 5.05905e-05 -1.58292e-05 6.97795e-06 0.004 747.106 -4.32356 
544 1 1 -0.0140217 -0.0253028 0.00874964 0 0 0 2.42563e-06 -2.99532e-06 3.83001e-07 -9.59707e-07 2.5535e-06 1.19818e-06 0.000136176 -0.000167704 -0.000285421 0.004 405.639 4.03276 
29 1 1 -0.00450626 -0.0263793 0.00900727 0 0 0 3.30453e-06 -3.07726e-06 2.34565e-07 -1.98364e-06 3.59309e-06 1.6399e-06 -0.000237127 -0.000102678 -0.000389206 0.004 490.905 2.25354 
248 1 1 0.00349902 -0.0278426 0.00763307 0 0 0 2.03843e-06 -1.17835e-08 3.11811e-07 -1.12207e-06 1.08018e-06 -2.08898e-06 0.000257462 -4.46569e-05 -0.000318512 0.004 591.508 -1.43434 
79 1 1 0.035837 -0.0289489 0.00959646 0 0 0 6.15829e-07 -1.79189e-07 -6.36834e-07 -3.28899e-07 6.24578e-07 1.10256e-06 0.000232451 -0.000246644 4.26082e-05 0.004 776.279 -3.08026 
291 1 1 -0.00458869 -0.0173975 0.00909522 0 0 0 1.99918e-06 -3.06134e-06 -5.44498e-07 -1.66214e-06 3.7634e-06 2.30617e-06 -0.000287855 -0.000360123 -0.000158815 0.004 503.402 1.47614 
891 1 1 0.0037349 -0.015528 0.00632507 0 0 0 1.74796e-06 -2.02764e-06 -6.00429e-07 -4.34369e-07 2.90865e-06 1.1211e-06 -0.000451682 -0.000336992 1.85482e-05 0.004 590.222 -1.27076 
870 1 1 0.0138323 -0.0156364 0.00831014 0 0 0 2.62333e-06 -1.49849e-07 -2.31455e-07 -3.08079e-07 2.66646e-06 1.45039e-06 0.000146188 -9.05029e-05 0.000134345 0.004 688.574 -3.95466 
777 1 1 0.034969 -0.018778 0.00770999 0 0 0 2.0673e-07 -1.87065e-07 3.88862e-07 8.59874e-08 1.79596e-06 8.1568e-07 0.000353203 -0.000361743 0.000161363 0.004 784.614 -2.30883 
837 1 1 -0.029449 -0.0146727 0.00803326 0 0 0 8.25793e-07 -1.85269e-06 5.13649e-09 3.38344e-07 1.35908e-06 1.0595e-06 0.000134073 0.00016425 -0.000170445 0.004 324.898 2.67482 
445 1 1 -0.0181358 -0.0138493 0.00995275 0 0 0 6.5799e-07 -6.48908e-06 -3.35804e-07 -1.97679e-06 3.55822e-06 9.48328e-07 5.79123e-05 -0.000125589 -0.000491331 0.004 375.286 3.89922 
783 1 1 0.00485901 -0.00860659 0.00993766 0 0 0 2.11784e-06 -3.00103e-06 -1.78507e-06 -2.52163e-06 3.55031e-06 2.23749e-06 0.00023854 5.12306e-05 -0.000275809 0.004 605.216 -1.79575 
615 1 1 -0.0350999 -0.000758717 0.00955182 0 0 0 -8.36946e-07 -2.89176e-06 -1.90567e-06 -1.68575e-06 -1.8614e-07 5.48088e-07 0.000221228 9.1464e-05 -0.000215026 0.004 312.597 1.75266 
476 1 1 -0.0459521 0.00262139 0.00988978 0 0 0 -7.03781e-07 -6.63297e-07 -6.01744e-07 -4.23022e-07 8.60053e-08 -1.91027e-07 -1.29306e-05 -3.95379e-05 2.92148e-06 0.004 303.264 0.787395 
16 1 1 -0.0210455 0.00169438 0.00830926 0 0 0 5.836e-07 -5.4899e-06 -2.57034e-06 -2.6897e-06 9.44671e-07 3.12208e-07 0.000138217 0.000278656 -0.000194212 0.004 356.954 3.66655 
303 1 1 0.0459492 0.00350463 0.00962655 0 0 0 2.11466e-07 4.7069e-07 1.11867e-06 -8.87786e-07 -3.1596e-07 1.53064e-06 -0.000130168 0.000233352 -0.000113211 0.004 795.965 -0.921101 
523 1 1 -0.0389797 0.0080308 0.00932861 0 0 0 -9.95625e-07 -2.0378e-06 -1.62146e-06 -9.64417e-07 -4.20238e-08 -1.53465e-07 0.000108986 -0.000157646 8.65294e-06 0.004 308.413 1.41923 
704 1 1 -0.010798 0.00519221 0.00743859 0 0 0 9.67884e-07 -5.83077e-06 -2.84198e-06 -2.23848e-06 1.08222e-06 2.31107e-07 0.000298562 -0.000103984 0.000185227 0.004 429.618 3.48161 
454 1 1 0.00101183 0.00715931 0.00933954 0 0 0 8.90775e-07 -4.37774e-06 -1.93424e-06 -3.12884e-06 1.86692e-06 1.3671e-06 0.000239192 6.61879e-06 -4.43402e-05 0.004 554.555 -0.0168988 
31 1 1 0.0102165 0.00547589 0.00832587 0 0 0 1.43653e-06 -3.04398e-06 -1.12152e-06 -3.62455e-06 3.13617e-06 3.91421e-06 -6.91583e-06 0.000226768 5.72932e-05 0.004 654.366 -3.08881 
135 1 1 0.0188886 0.00749168 0.00960781 0 0 0 1.24271e-06 -2.75483e-06 1.47416e-06 -3.09419e-06 2.9806e-06 2.39306e-06 0.000300291 -0.000291089 0.000478449 0.004 741.394 -4.33455 
712 1 1 0.0281139 0.00743266 0.00998852 0 0 0 7.3153e-07 -1.78404e-06 2.68764e-06 -3.30194e-06 1.8625e-06 3.35698e-06 0.000790097 -0.000183501 -0.000106054 0.004 770.883 -3.1227 
210 1 1 0.0394934 0.00814607 0.00989878 0 0 0 -2.7444e-07 -2.33732e-07 2.18837e-06 -2.12482e-06 -2.25458e-08 1.92995e-06 -0.000129923 3.5787e-05 0.000170804 0.004 792.316 -1.39565 
651 1 1 -0.0437987 0.0143398 0.00823566 0 0 0 -4.97114e-07 -8.64903e-07 -7.11488e-07 -3.81366e-07 1.64967e-08 -1.49652e-07 9.77489e-06 9.53342e-05 -0.000120046 0.004 305.823 1.19896 
621 1 1 0.0437182 0.0147846 0.00900764 0 0 0 -3.47585e-07 -1.3754e-07 9.31559e-07 -1.10341e-06 3.05689e-08 8.2069e-07 -0.000141795 8.66005e-05 -3.838e-05 0.004 791.377 -1.50948 
726 1 1 -0.0257657 0.0199972 0.00692825 0 0 0 -6.98834e-07 -1.77576e-06 -1.71422e-06 -9.02284e-07 -1.53508e-07 -1.00445e-06 -0.000454852 -0.000293536 1.2963e-05 0.004 334.477 3.43447 
230 1 1 -0.00847465 0.024595 0.00973776 0 0 0 -8.05824e-07 -4.09881e-06 -2.4535e-06 -3.03886e-06 2.16789e-06 -7.77455e-07 0.00032012 -0.000154082 -2.84295e-05 0.004 468.56 2.89111 
320 1 1 -0.00171264 0.020405 0.00979385 0 0 0 -5.53311e-07 -4.53568e-06 -1.66522e-06 -3.22175e-06 2.15651e-06 5.3694e-07 0.000133608 -0.000359734 9.20263e-05 0.004 530.446 1.15988 
7 1 1 0.0129211 0.0224303 0.00918517 0 0 0 3.43777e-07 -3.60838e-06 1.06599e-06 -2.31193e-06 1.02752e-06 1.62691e-06 -0.000202224 -0.000149666 -4.56152e-05 0.004 679.873 -3.58668 
83 1 1 0.0214164 0.0239651 0.00888424 0 0 0 -1.21184e-07 -2.8331e-06 1.06275e-06 -2.55719e-06 6.32808e-07 1.76552e-06 -3.95407e-05 -0.000399488 4.77545e-05 0.004 743.409 -3.92614 
747 1 1 -0.0337321 0.0313835 0.00974073 0 0 0 -7.36196e-07 -8.77439e-07 -5.30561e-07 -1.05892e-06 -3.45309e-07 -2.26564e-07 6.8312e-06 6.80256e-05 -0.000100195 0.004 323.327 2.98758 
51 1 1 -0.0226192 0.0329654 0.00703451 0 0 0 -1.33853e-06 -1.3084e-06 -1.22743e-06 -4.78591e-07 -5.75422e-07 -4.23264e-07 -2.13788e-05 0.000256467 9.32689e-05 0.004 341.429 4.23011 
116 1 1 -0.00940734 0.0391203 0.00809817 0 0 0 -3.0791e-07 -1.26957e-06 -7.75165e-07 -1.10585e-06 1.06321e-06 -1.74389e-07 0.000154039 -0.000231617 -0.000102171 0.004 469.723 2.91267 
205 1 1 -0.00056045 -0.0460776 0.0110171 0 0 0 3.20978e-07 7.2827e-08 1.71189e-08 -9.15695e-07 5.14056e-07 2.92554e-07 -2.38833e-05 0.000135917 7.54408e-06 0.004 547.657 0.772196 
836 1 1 0.00737986 -0.0454688 0.0106611 0 0 0 6.88022e-07 1.46678e-07 3.18957e-07 -7.72199e-07 2.72089e-07 -4.97128e-08 0.00011756 -1.60016e-05 -0.000159882 0.004 608.383 -2.19747 
486 1 1 -0.0156916 -0.0402432 0.0103352 0 0 0 3.54953e-07 -3.06381e-07 4.82909e-07 -9.72009e-07 1.83032e-06 1.48331e-06 -0.000160686 -1.22237e-05 -0.000166277 0.004 394.798 5.01356 
311 1 1 -0.0083681 -0.0439882 0.0106791 0 0 0 1.20067e-06 -3.97031e-07 3.12864e-07 -1.84077e-06 8.5793e-07 9.38493e-07 0.000190868 7.005e-05 0.000230312 0.004 446.705 5.42159 
447 1 1 0.0180551 -0.0423881 0.0118323 0 0 0 7.30035e-07 -1.84023e-07 -1.28524e-08 -3.95684e-07 2.17318e-07 2.02937e-07 -6.87258e-05 0.000147722 -6.7051e-05 0.004 688.716 -4.64446 
538 1 1 -0.0295743 -0.035351 0.0149849 0 0 0 -1.11601e-07 -6.8347e-07 -7.16558e-08 -2.89608e-07 7.72718e-07 8.43073e-07 3.63168e-05 3.24264e-05 1.17677e-05 0.004 333.053 3.61229 
279 1 1 0.011155 -0.0385417 0.0114152 0 0 0 1.58274e-06 -3.71555e-07 6.01883e-07 -1.02636e-06 7.13811e-07 -3.88365e-08 2.90126e-05 9.92234e-05 -5.36348e-05 0.004 647.251 -3.3796 
110 1 1 0.0250464 -0.0386627 0.0117241 0 0 0 6.0316e-07 -1.48604e-07 2.13969e-07 -3.71888e-07 4.32787e-07 2.6206e-08 0.000185421 -0.000141004 5.52127e-06 0.004 729.817 -4.77261 
188 1 1 -0.0179041 -0.0321007 0.0101564 0 0 0 1.06112e-06 -1.80402e-06 -8.52858e-08 -3.41009e-07 2.2797e-06 1.72505e-06 0.000163443 4.68264e-06 -0.000112449 0.004 383.409 4.34447 
810 1 1 -0.0102601 -0.034451 0.0102036 0 0 0 1.78101e-06 -1.88072e-06 2.22566e-07 -7.88528e-07 2.3059e-06 1.65146e-06 1.14647e-05 7.54462e-05 -0.000262562 0.004 439.487 3.76655 
412 1 1 -0.00316742 -0.0328806 0.0133526 0 0 0 2.18792e-06 -2.12696e-06 1.18838e-06 -1.30419e-06 2.60188e-06 1.46657e-06 -3.86213e-05 -0.000109128 0.000155467 0.004 504.379 1.79113 
545 1 1 0.00452055 -0.0343088 0.0121941 0 0 0 2.06434e-06 -7.23373e-07 1.10382e-06 -1.08939e-06 1.3528e-06 -8.26894e-09 6.79359e-06 0.000168426 5.00206e-05 0.004 594.33 -1.46565 