ITEM: TIMESTEP
21600
ITEM: NUMBER OF ATOMS
891
ITEM: BOX BOUNDS mm mm mm
-0.05 0.05
-0.05 0.05
0 0.15
ITEM: ATOMS id type type x y z ix iy iz vx vy vz fx fy fz omegax omegay omegaz radius f_Temp[0] f_heatFlux[0] 
199 1 1 -0.00444377 -0.0458158 0.0039744 0 0 0 -4.454e-07 1.57755e-05 1.40953e-05 -2.79867e-05 2.02252e-06 -3.71378e-05 0.000100397 0.00138261 0.00231478 0.004 371.941 24.4531 
873 1 1 -0.0201484 -0.0414789 0.0039016 0 0 0 2.1276e-05 1.36636e-06 1.85112e-05 -1.49341e-05 1.85493e-06 -1.19075e-05 0.00460743 0.00452633 -0.00289098 0.004 301.562 2.44935 
485 1 1 -0.0126796 -0.0442534 0.00397267 0 0 0 4.01325e-06 1.40282e-05 1.45214e-05 -2.10991e-05 1.92806e-05 -1.96102e-05 -0.000315385 -0.00376712 0.00448288 0.004 304.958 5.89026 
850 1 1 0.00335644 -0.0441758 0.00394122 0 0 0 5.90948e-06 1.56237e-05 -1.60337e-06 -4.94327e-05 4.95324e-06 -1.7416e-05 -0.00527364 0.000238299 -0.00593203 0.004 654.268 -46.2535 
186 1 1 0.0114401 -0.0445988 0.00392831 0 0 0 5.06346e-06 -9.4093e-06 5.02919e-06 5.62191e-07 -4.1887e-05 -2.204e-05 0.00372696 0.00112988 0.00193035 0.004 783.052 -14.83 
560 1 1 0.0189689 -0.0420006 0.00394679 0 0 0 1.20651e-06 7.73261e-07 1.76434e-06 2.27847e-05 -1.5975e-05 -2.0871e-05 -0.00230063 0.000318045 -0.00173312 0.004 795.318 -5.83327 
102 1 1 -0.0147501 -0.0357331 0.00386314 0 0 0 1.12723e-05 2.29975e-05 3.07616e-05 -1.01287e-05 -1.32239e-05 -2.14181e-05 -0.000849551 0.000643622 0.00408929 0.004 309.642 9.87383 
88 1 1 -0.0073076 -0.0383837 0.00392733 0 0 0 4.12556e-06 2.86109e-05 9.86395e-07 -2.96669e-05 -1.74319e-05 -4.55818e-05 -0.00458664 0.00747661 -0.0028666 0.004 343.119 25.4753 
776 1 1 0.00520382 -0.0354367 0.00395035 0 0 0 7.34315e-06 2.42035e-05 2.72848e-05 -4.44362e-06 -7.13511e-05 -7.58832e-05 -0.00673427 0.00115273 -0.00470325 0.004 664.538 -25.2174 
410 1 1 0.0130236 -0.0368131 0.00392581 0 0 0 9.22691e-06 7.67485e-07 -2.55353e-07 7.01784e-06 -5.58282e-05 -4.66035e-05 -0.000683335 0.00552593 0.000437061 0.004 775.792 -17.2647 
282 1 1 0.025876 -0.0381319 0.00388529 0 0 0 -9.09935e-06 -8.73008e-06 -4.72183e-06 6.05195e-06 -7.09736e-06 4.47455e-06 0.000994436 -0.00216455 0.00250985 0.004 799.489 -0.923215 
682 1 1 -0.0302016 -0.0348779 0.00393464 0 0 0 1.44526e-05 -4.77111e-06 1.2284e-05 -1.01186e-06 4.65877e-06 -2.00786e-06 0.00269803 -0.00071946 -0.00346227 0.004 300.12 0.253768 
251 1 1 -0.0224189 -0.0338476 0.00392333 0 0 0 1.92032e-05 7.29073e-06 3.14374e-05 -2.11942e-07 -1.23018e-07 -4.88934e-06 -0.00236402 -2.53091e-05 0.00426318 0.004 301.207 1.9167 
770 1 1 -0.00204757 -0.0321407 0.00393974 0 0 0 4.01063e-06 2.35534e-05 6.94668e-06 -6.16732e-06 -6.77381e-05 -6.02391e-05 -0.0078381 0.00367931 0.0040265 0.004 468.305 43.6222 
883 1 1 0.0181659 -0.0307535 0.00390031 0 0 0 -7.99108e-06 -8.50738e-06 -2.00099e-05 3.22842e-05 -3.19159e-05 -1.29508e-06 -0.000789516 -0.00293656 -0.00309219 0.004 794.152 -6.54064 
838 1 1 0.0320335 -0.033109 0.00396074 0 0 0 -7.37706e-06 -2.15658e-06 -6.71279e-06 8.80499e-06 -3.38278e-06 1.98054e-05 -0.00085547 -0.00181893 -0.000105909 0.004 799.932 -0.152113 
617 1 1 -0.0372521 -0.0271215 0.00391644 0 0 0 1.5227e-05 -3.19932e-06 1.35621e-05 1.57905e-05 7.9258e-06 8.47434e-06 0.00208506 0.000253952 -0.00110349 0.004 300.003 0.00812826 
824 1 1 -0.0292999 -0.0270298 0.0039298 0 0 0 2.75073e-05 1.96354e-07 2.09192e-05 2.74152e-05 1.34735e-05 7.63502e-07 -8.66153e-06 0.00362198 0.00132048 0.004 300.031 0.0770776 
571 1 1 -0.0202615 -0.0262215 0.00393282 0 0 0 3.08492e-05 8.58403e-06 2.43239e-05 2.15213e-05 7.09069e-06 -4.20825e-05 -0.00183157 0.00208921 -0.00298891 0.004 300.872 1.4473 
861 1 1 -0.00959295 -0.0297304 0.00389704 0 0 0 1.07658e-05 2.30055e-05 3.82188e-05 -2.58365e-06 -4.85094e-06 -4.82593e-05 -0.000633422 0.0026474 -0.00568659 0.004 330.12 22.5436 
434 1 1 0.0103455 -0.0293807 0.00393752 0 0 0 6.23844e-06 1.62743e-06 -9.52178e-06 5.64813e-06 -4.7561e-05 -3.84132e-05 -0.00458958 0.00502439 0.00194832 0.004 761.141 -24.0079 
103 1 1 0.0311546 -0.0252347 0.00394366 0 0 0 5.25114e-07 -1.01429e-06 -8.28827e-06 4.20527e-05 1.44208e-05 2.56366e-05 -0.000222357 0.000355292 0.000664227 0.004 799.919 -0.158671 
769 1 1 -0.041344 -0.0202818 0.00398227 0 0 0 1.00531e-05 -2.90544e-06 9.80871e-06 1.55552e-05 4.34724e-06 2.35902e-05 -0.000160817 -0.00171732 -0.000672816 0.004 300 0.00157043 
94 1 1 -0.0333714 -0.0202163 0.00394363 0 0 0 2.21134e-05 2.19464e-06 2.16963e-05 4.21462e-05 9.96008e-06 2.52382e-05 -0.00251672 0.00051753 0.000590605 0.004 300.011 0.0298729 
40 1 1 -0.0254011 -0.0201463 0.00391755 0 0 0 2.88463e-05 -7.97528e-08 1.76389e-05 4.3092e-05 6.78752e-06 -5.19409e-06 0.000819959 0.00440617 0.000677826 0.004 300.158 0.326774 
19 1 1 -0.00865073 -0.0218804 0.00393972 0 0 0 5.98246e-06 2.07755e-05 3.15766e-05 2.5829e-05 9.65505e-06 -8.71538e-05 -0.00319187 0.00367246 0.00831924 0.004 327.739 21.5063 
442 1 1 -0.000436994 -0.0218499 0.00393599 0 0 0 -1.68996e-05 -1.09e-06 1.34138e-05 3.56199e-05 2.89027e-05 -0.000133281 0.000821967 0.00227915 -0.00381656 0.004 456.05 45.8632 
259 1 1 0.00753188 -0.0220001 0.00392522 0 0 0 -2.64896e-05 -3.10565e-05 -6.66757e-06 -8.16222e-06 5.04126e-06 -7.27372e-05 0.0130523 -0.00311682 0.00221737 0.004 725.344 -23.8198 
512 1 1 0.0153882 -0.0232356 0.00397839 0 0 0 -1.1994e-05 5.32951e-06 -2.71993e-05 9.6993e-06 -2.23135e-05 7.10574e-06 0.000298453 0.00082711 0.00393093 0.004 788.195 -9.91729 
470 1 1 0.0232615 -0.0243589 0.00390824 0 0 0 -6.31214e-06 -5.67749e-06 -2.03863e-05 2.62309e-05 -5.34656e-06 1.51315e-05 0.0032768 -0.00274431 -0.00391468 0.004 798.974 -1.42469 
451 1 1 0.0390293 -0.0244875 0.00392049 0 0 0 -2.31831e-06 6.12108e-06 -5.86478e-06 1.4605e-05 -8.60375e-06 5.12246e-06 -0.00252968 -0.000995575 -0.0010823 0.004 799.993 -0.0168697 
531 1 1 -0.0164596 -0.0192004 0.00396123 0 0 0 1.94049e-05 2.86916e-07 6.93305e-06 2.41115e-05 2.28453e-05 -5.1769e-05 -0.000799578 0.00729882 0.00590025 0.004 302.22 2.73005 
229 1 1 0.0202057 -0.0169136 0.00386884 0 0 0 -6.79326e-06 -1.35701e-05 -3.22006e-05 4.74404e-05 -1.94577e-05 4.03752e-06 0.000974706 -0.00194445 -0.00714052 0.004 798.094 -2.69457 
734 1 1 0.0280519 -0.0179421 0.00394405 0 0 0 -1.55207e-05 -8.12301e-06 -1.47194e-05 7.06443e-05 3.561e-05 -1.35374e-05 0.000298478 -0.00385286 0.00771348 0.004 799.841 -0.305532 
635 1 1 0.0425981 -0.0174495 0.00392192 0 0 0 1.52905e-06 -3.11226e-07 -1.38815e-05 3.8912e-07 -6.64948e-06 -2.44345e-06 6.07647e-05 0.000633703 0.0004106 0.004 800 -0.00129776 
87 1 1 -0.0448224 -0.0104639 0.00391417 0 0 0 9.0826e-06 -4.15656e-07 4.00331e-06 3.71976e-05 -1.90933e-05 1.64789e-05 -0.000671474 0.00151682 -0.000854102 0.004 300 0.000166792 
406 1 1 -0.0373952 -0.013391 0.00396011 0 0 0 1.31483e-05 -2.03552e-06 5.48486e-06 5.46135e-05 1.97514e-06 2.91867e-05 -0.000797668 0.00291138 0.00134093 0.004 300.001 0.00232661 
224 1 1 -0.0230581 -0.0126018 0.00387954 0 0 0 2.50757e-05 -1.04914e-05 2.86127e-05 4.11939e-05 8.89555e-06 1.57253e-05 0.00286232 0.00417614 0.00108714 0.004 300.858 1.33939 
751 1 1 -0.0102997 -0.0141545 0.00396949 0 0 0 -1.83299e-05 -3.40442e-06 1.95641e-05 2.34282e-05 6.00498e-07 -4.25999e-05 0.00197194 -0.0101335 -0.000632408 0.004 324.558 16.6839 
622 1 1 -0.00273394 -0.0117409 0.00388534 0 0 0 -6.22823e-07 4.40834e-06 1.3534e-05 4.39063e-05 3.82798e-05 -6.76574e-05 -0.0043321 0.00984393 -0.00120043 0.004 452.022 24.6441 
128 1 1 0.00951052 -0.010685 0.00388471 0 0 0 -2.08424e-05 -1.39676e-05 -2.09147e-05 7.84589e-05 -4.75214e-07 -5.18899e-05 0.00126033 -0.00204572 0.00824317 0.004 769.922 -20.0016 
68 1 1 0.0262807 -0.010211 0.00395446 0 0 0 -2.66269e-05 -1.2026e-05 -1.68067e-05 6.08261e-05 9.73045e-06 -6.83772e-06 0.0048212 -0.000989115 -0.00366338 0.004 799.936 -0.141693 
791 1 1 0.0340943 -0.0118533 0.00392806 0 0 0 -4.5974e-05 3.17942e-05 3.20394e-06 4.03751e-05 6.03628e-05 2.44173e-05 -0.0091832 -0.00996304 0.0117805 0.004 799.997 -0.00830347 
354 1 1 -0.0380749 -0.00550392 0.00392037 0 0 0 2.3859e-06 -1.39436e-06 6.40378e-06 4.4622e-05 -1.17373e-05 1.36994e-05 0.000460421 -0.000382971 -5.59748e-05 0.004 300.001 0.00251609 
725 1 1 -0.0304901 -0.00800527 0.00392515 0 0 0 1.81031e-05 4.82211e-06 1.45323e-05 4.69417e-05 -1.51186e-06 -1.16837e-05 -0.00276603 0.0036302 0.00551108 0.004 300.01 0.0258838 
353 1 1 -0.0161288 -0.00879802 0.00391139 0 0 0 1.47071e-06 -9.64361e-06 1.78595e-05 4.03805e-05 -1.0881e-05 1.8742e-05 0.0042392 0.00318258 -0.00100974 0.004 306.492 7.06687 
391 1 1 -0.00857665 -0.00639741 0.00391356 0 0 0 -2.60442e-05 -6.6527e-06 1.51164e-05 2.152e-05 -2.29894e-05 6.46297e-06 -0.00187116 -0.00597314 0.00569411 0.004 338.646 24.6426 
683 1 1 0.0173532 -0.00945627 0.00390998 0 0 0 -2.33236e-05 -2.25224e-05 -3.80409e-05 7.34704e-05 1.64235e-06 -3.14958e-05 0.00672004 -0.00512418 0.00184499 0.004 796.535 -4.18742 
690 1 1 0.0385536 -0.00520148 0.00390027 0 0 0 -2.66154e-05 2.17853e-05 -2.68618e-05 -1.05832e-05 1.27563e-05 3.01355e-05 -0.00680036 -0.00600888 -0.00217892 0.004 799.999 -0.00212165 
10 1 1 0.0449635 -0.00990888 0.00397399 0 0 0 -1.22284e-05 8.61902e-06 -5.69783e-06 -1.81784e-05 1.83345e-06 1.1912e-05 0.00123723 -0.00134831 0.0016581 0.004 800 -0.000179564 
402 1 1 -0.046017 -0.00264169 0.00392178 0 0 0 1.46993e-06 3.64103e-06 4.24566e-06 4.7359e-06 -2.55252e-05 1.56237e-05 0.00121474 -2.20441e-05 0.00166226 0.004 300 0.000599321 
761 1 1 -0.0294745 -0.000168274 0.00392555 0 0 0 4.34294e-07 3.64493e-07 1.07614e-05 3.39256e-05 -1.47627e-05 1.67889e-05 0.000566971 -0.000291377 -0.000668693 0.004 300.065 0.140764 
293 1 1 -0.0229325 -0.00466867 0.00395943 0 0 0 6.56354e-06 -3.76207e-06 1.95718e-05 3.59611e-05 1.96801e-06 2.53487e-05 -0.00202135 -0.000215166 0.00082228 0.004 300.548 0.930734 
384 1 1 -0.0147214 -0.000873738 0.0039815 0 0 0 -0.000883549 0.000686052 -3.2501e-09 3.65672e-13 -2.83978e-13 -3.27586e-09 -0.171911 -0.221399 0.233621 0.004 300 0 
378 1 1 0.00130601 -0.00490401 0.00392913 0 0 0 -2.5666e-05 -7.88371e-06 -1.97399e-05 5.49556e-05 -1.12363e-05 -4.93786e-05 0.00404545 0.000311206 0.00295973 0.004 636.953 -41.4884 
390 1 1 0.0103706 -0.0027653 0.00396894 0 0 0 -3.72544e-05 -1.21824e-05 -3.1144e-05 2.23157e-05 3.46901e-05 -1.91823e-05 0.001977 0.00111618 -0.00387769 0.004 791.714 -9.48947 
411 1 1 0.0223602 -0.00329287 0.00397635 0 0 0 -5.93332e-05 -2.56291e-06 -3.50222e-05 5.36374e-05 -6.16755e-06 -1.2793e-05 -0.00876314 -0.0103665 0.00928077 0.004 799.695 -0.534484 
342 1 1 0.0307347 -0.00361671 0.00397531 0 0 0 -1.39375e-05 2.20575e-06 -1.12894e-05 7.0815e-05 4.72459e-05 8.92015e-06 -0.00128928 0.00286577 0.0028289 0.004 799.997 -0.00943252 
262 1 1 0.0460221 -0.00206508 0.00395834 0 0 0 -1.3734e-06 2.14896e-05 -1.03108e-05 -2.88103e-05 6.94725e-06 -5.87888e-08 -0.00531267 -0.000260143 -0.00529304 0.004 800 -0.000142397 
261 1 1 -0.0398215 0.00224605 0.0039347 0 0 0 6.23631e-07 2.94169e-06 1.04013e-05 1.35594e-05 -2.47619e-05 1.59273e-05 -2.30994e-05 -0.000682022 -0.00162317 0.004 300.003 0.00737309 
666 1 1 -0.00454677 0.000451499 0.003956 0 0 0 -4.49263e-05 -1.35116e-05 1.64592e-05 -4.98093e-06 -2.28586e-05 2.3959e-05 0.00309486 -0.00584667 5.82392e-05 0.004 399.975 30.2653 
815 1 1 0.00434363 0.00243565 0.00392715 0 0 0 -5.35696e-05 -7.59849e-06 -2.59041e-05 7.66591e-06 -4.23901e-06 -1.50127e-05 -0.00129672 -0.00729876 0.00410569 0.004 736.866 -37.3492 
306 1 1 0.01637 0.00247664 0.00395819 0 0 0 -5.49208e-05 1.72929e-06 -4.10008e-05 1.86804e-05 5.98938e-05 -2.31103e-05 -0.00166801 -0.00820481 0.00927769 0.004 798.935 -1.62373 
178 1 1 0.0241041 0.00444172 0.00386125 0 0 0 -4.33895e-05 -3.98391e-07 -4.00841e-05 9.45942e-06 9.07685e-06 2.3246e-07 0.00357375 -0.00680828 -0.0111362 0.004 799.801 -0.384066 
862 1 1 0.0320656 0.00423358 0.00393109 0 0 0 -2.59441e-05 2.1134e-06 -2.61035e-05 1.41922e-05 6.85275e-05 -3.81028e-05 -0.00369253 -0.00557587 0.00560312 0.004 799.988 -0.0302506 
661 1 1 0.0398756 0.00291463 0.00394684 0 0 0 2.52842e-07 3.51779e-05 -1.41036e-05 -1.13922e-05 4.85233e-05 -1.84514e-05 -0.00734601 0.00278287 0.0026722 0.004 799.999 -0.00207084 
677 1 1 -0.0453782 0.00788542 0.00393638 0 0 0 1.70895e-06 3.7616e-06 4.57981e-06 5.54124e-06 -9.62638e-06 8.73959e-06 -0.00108445 -1.28455e-05 0.00124027 0.004 300 0.000530088 
12 1 1 -0.0333161 0.00671966 0.00393688 0 0 0 1.32353e-06 5.42384e-08 1.08589e-05 1.07695e-05 -1.95158e-05 2.18977e-05 -0.000576929 0.000676931 0.00053727 0.004 300.036 0.0768313 
420 1 1 -0.0254 0.00664844 0.00392678 0 0 0 -3.30618e-06 2.06496e-06 1.32972e-05 5.10688e-07 -9.5452e-06 2.20116e-05 -0.00116512 -0.00147971 0.000426925 0.004 300.47 0.760115 
654 1 1 -0.0175134 0.00720957 0.00387204 0 0 0 -1.23232e-05 3.43282e-06 1.86644e-05 -8.26869e-06 -2.32575e-05 2.30042e-05 -0.0024673 -0.00128203 -0.00049557 0.004 304.412 4.79267 
145 1 1 -0.00454406 0.00836546 0.00386308 0 0 0 -3.51895e-05 -2.52349e-06 5.66534e-07 -2.99663e-05 -2.43655e-05 9.51709e-06 -0.00299656 -0.00470952 -0.00358008 0.004 394.87 25.9707 
624 1 1 0.0451449 0.00890649 0.00390661 0 0 0 7.90944e-06 2.72723e-05 -1.39214e-05 -3.68876e-06 1.7957e-05 -4.67355e-06 -0.00389594 0.000345113 -0.00174908 0.004 800 -0.000443269 
613 1 1 -0.0372991 0.013534 0.00384338 0 0 0 -7.32036e-07 7.16373e-07 8.38278e-06 3.54477e-06 -1.35059e-05 1.45489e-05 9.1289e-07 -0.000433095 -0.000415477 0.004 300.004 0.0101943 
265 1 1 -0.0293062 0.013543 0.00396366 0 0 0 -6.71578e-06 1.29242e-06 3.89326e-06 -2.70237e-06 -1.78748e-05 1.70589e-05 -0.000383341 0.000149529 0.0011756 0.004 300.062 0.135157 
273 1 1 -0.0213694 0.0141275 0.00392931 0 0 0 -1.25659e-05 8.09734e-06 3.30485e-06 -6.61936e-06 -1.90093e-05 2.44982e-05 -0.00347756 -0.00108146 0.000622057 0.004 300.526 0.891558 
492 1 1 -0.01145 0.0123713 0.00398073 0 0 0 -2.70507e-05 1.28688e-05 -4.39666e-06 -2.91221e-05 -2.00605e-05 1.95651e-05 -0.00376233 -0.00142117 0.00230576 0.004 311.412 10.1976 
234 1 1 0.00585285 0.010393 0.00392893 0 0 0 -4.08762e-05 -8.48775e-06 -1.72873e-05 -1.86559e-05 2.44872e-06 -6.98475e-06 0.00303532 -0.00612923 -0.00537439 0.004 692.14 -34.1227 
160 1 1 0.0142842 0.0106356 0.00390963 0 0 0 -2.85467e-05 -1.42647e-05 -2.7427e-05 -6.95355e-06 1.94226e-05 -8.11542e-06 0.0032747 -0.00378296 -0.00189417 0.004 791.296 -9.57068 
484 1 1 0.0220893 0.0120738 0.00390125 0 0 0 -1.13929e-05 -2.72662e-08 -2.32848e-05 -9.2066e-06 3.57657e-05 2.23559e-07 0.000427074 -0.00325843 0.00121101 0.004 799.089 -1.44897 
743 1 1 0.0300184 0.0126215 0.00398128 0 0 0 4.34883e-06 2.749e-05 1.69423e-07 -1.25281e-05 6.75207e-05 2.16111e-06 -0.00708868 -0.000646994 0.00644008 0.004 799.923 -0.165706 
514 1 1 0.0379536 0.0130186 0.00386911 0 0 0 1.28788e-05 4.17855e-05 -1.49791e-05 -1.7094e-05 3.17264e-05 -2.10941e-07 -0.00707413 0.00341798 -0.0018579 0.004 799.995 -0.0141267 
530 1 1 -0.0159002 0.0198649 0.0039279 0 0 0 -2.45215e-05 1.03174e-05 2.80505e-06 -2.64188e-05 -2.04337e-05 2.78187e-05 -0.00138012 -0.00538377 0.000393428 0.004 301.882 2.92716 
227 1 1 -0.00736501 0.0192084 0.0039659 0 0 0 -1.9327e-05 6.41398e-06 -1.18959e-05 -2.02562e-05 -1.53663e-05 1.66456e-05 -0.0015922 -0.00603574 -0.00570086 0.004 334.151 23.5447 
392 1 1 -0.000498615 0.0151514 0.00394445 0 0 0 -1.86891e-05 -6.02801e-06 -4.07763e-06 -2.2616e-05 -1.9107e-05 1.85787e-06 0.0019014 0.00123685 0.00118842 0.004 461.422 31.5734 
493 1 1 0.0098584 0.0172532 0.00394648 0 0 0 -1.46069e-05 -1.84995e-05 -9.5583e-06 -2.08328e-05 1.30874e-06 -1.47219e-06 0.00195389 0.000198604 -0.00117074 0.004 755.694 -27.101 
34 1 1 0.0176357 0.0187852 0.00394102 0 0 0 -1.46153e-05 -1.48218e-05 -8.65639e-06 -2.5319e-05 2.94049e-05 3.86496e-06 0.002828 -0.00262079 0.00302376 0.004 793.489 -7.41529 
206 1 1 0.0255397 0.0192352 0.00396995 0 0 0 -6.74705e-06 -6.20722e-06 -3.32556e-07 -1.77313e-05 4.18751e-05 2.62486e-06 0.00386213 -0.00110622 -0.000410795 0.004 799.372 -1.04642 
104 1 1 0.0334175 0.0199346 0.00389653 0 0 0 7.10775e-06 1.58225e-05 -8.52253e-07 -6.79795e-06 4.18479e-05 -7.18992e-06 -0.00411843 0.00235236 0.00523327 0.004 799.95 -0.11093 
809 1 1 -0.0412059 0.0204949 0.00395495 0 0 0 -9.14001e-07 1.56141e-06 3.06901e-06 9.52407e-07 -5.32243e-06 6.6521e-06 -0.000726158 -0.000372796 0.000282259 0.004 300 0.00068927 
773 1 1 -0.0331523 0.0204531 0.00393516 0 0 0 -7.38618e-06 -1.51801e-06 7.15661e-06 2.60131e-07 -1.38965e-05 1.22693e-05 0.000494636 -0.000990123 -0.000547122 0.004 300.01 0.0275639 
792 1 1 0.00347678 0.0219736 0.00392106 0 0 0 -7.61482e-06 -6.99617e-06 2.79182e-06 -9.01385e-06 -1.29955e-05 -7.63665e-06 0.0022416 -0.000439516 -0.00308659 0.004 633.98 -24.836 
718 1 1 0.0413199 0.0203659 0.00392991 0 0 0 5.32264e-06 1.95043e-05 -1.12964e-06 -7.01377e-06 2.70377e-05 -2.2888e-07 -0.00279199 0.000324969 -0.00134645 0.004 799.997 -0.00954442 
101 1 1 -0.0371146 0.0272995 0.00390398 0 0 0 -1.32568e-06 -9.68837e-08 1.90953e-06 1.63917e-06 -6.03773e-06 4.13846e-06 -0.000492416 4.07355e-05 -0.000285364 0.004 300.002 0.00665112 
246 1 1 -0.0290567 0.0272807 0.00398268 0 0 0 -1.53659e-05 1.85098e-06 1.97112e-07 -1.22002e-05 -9.82862e-06 7.82835e-06 -0.00138881 -0.000574505 0.00233726 0.004 300.037 0.0818227 
331 1 1 -0.0212281 0.0257799 0.00390012 0 0 0 -1.97262e-05 7.3158e-06 -2.41303e-06 -1.49916e-06 -1.72254e-05 1.74851e-05 -0.000682858 -0.000550557 0.000141179 0.004 300.778 1.25535 
846 1 1 -0.0134708 0.0274169 0.00397473 0 0 0 -2.47117e-05 9.49715e-06 -9.49493e-06 1.31071e-05 -2.90969e-05 3.1711e-05 -0.00383169 -0.0023141 -0.000244342 0.004 308.341 8.90949 
348 1 1 -0.00329918 0.0260612 0.0039337 0 0 0 -8.64209e-06 4.35672e-07 -3.13126e-06 1.85881e-05 -1.73056e-05 2.09984e-05 -0.000588129 -0.0017344 0.0030404 0.004 439.097 26.4434 
786 1 1 0.00840353 0.0281551 0.00389684 0 0 0 -4.8675e-06 -9.03578e-06 -5.00813e-07 6.74946e-06 -8.26494e-06 3.66397e-06 0.000456692 0.00151442 0.0011702 0.004 744.37 -31.7451 
316 1 1 0.0162833 0.0272928 0.0039063 0 0 0 -4.13262e-06 -1.25058e-05 -9.7978e-06 2.58963e-07 2.05695e-05 7.2133e-06 0.00366165 -0.000234707 3.11938e-05 0.004 792.609 -7.9424 
495 1 1 0.0288861 0.0264617 0.00396718 0 0 0 -1.00938e-07 -4.58612e-06 2.66993e-06 5.62065e-06 4.02039e-05 -8.82674e-06 0.000259775 0.00143952 -0.000294456 0.004 799.918 -0.180713 
863 1 1 0.0367263 0.0277633 0.00392938 0 0 0 1.42773e-06 1.38104e-06 2.6836e-06 2.90372e-06 1.98105e-05 -5.92073e-06 -0.000889755 5.1313e-05 0.00162329 0.004 799.995 -0.0138017 
511 1 1 -0.00761838 0.0327133 0.00388548 0 0 0 -2.10031e-05 1.56215e-06 -1.31936e-05 2.97203e-05 -2.9569e-05 2.59956e-05 -0.00161725 -0.0044863 -0.0014291 0.004 359.568 33.8334 
722 1 1 0.00164031 0.0322875 0.00396634 0 0 0 -1.08463e-05 -2.98876e-06 -1.93896e-06 2.09742e-05 -6.33419e-06 5.50538e-06 3.94751e-05 -0.00169807 -0.00177955 0.004 637.855 -38.4493 
2 1 1 0.0229311 0.031696 0.00396245 0 0 0 -3.18615e-06 -6.84313e-06 -5.26761e-07 1.00236e-05 2.46355e-05 -8.29444e-06 0.000159374 -0.00206794 0.000148522 0.004 799.343 -1.12535 
254 1 1 0.0305637 0.0343547 0.0039815 0 0 0 -0.000818632 0.000870518 -1.0869e-09 1.14782e-13 -1.22091e-13 7.58617e-10 -0.218134 -0.205132 -0.0703935 0.004 800 0 
257 1 1 -0.0296321 0.0352232 0.00395611 0 0 0 -1.56904e-05 -2.13465e-06 6.84188e-07 -6.95461e-06 -8.59817e-06 2.93016e-06 0.00134647 -0.00345785 -0.00281833 0.004 300.016 0.0407782 
582 1 1 -0.0157655 0.0356207 0.00393201 0 0 0 -3.49667e-05 -8.08779e-06 3.42468e-07 -6.82617e-06 -5.45903e-05 -1.7384e-06 0.00212483 -0.00778686 -0.00492092 0.004 300.934 1.41036 
255 1 1 -0.00267126 0.038932 0.00391143 0 0 0 -1.19768e-05 -1.65693e-06 -5.33164e-06 1.20086e-05 -1.35615e-05 2.02926e-05 0.000573 -0.00204596 0.000257234 0.004 457.317 28.0524 
887 1 1 0.00812082 0.0373183 0.00392886 0 0 0 -4.5201e-06 -8.7102e-06 -3.47209e-07 1.79565e-05 7.53428e-06 1.43931e-05 0.00183356 -0.0012153 -0.00111551 0.004 780.841 -16.3796 
719 1 1 0.0157853 0.0351951 0.00398364 0 0 0 -2.83757e-06 -9.4828e-06 -8.73296e-07 4.14786e-06 1.27136e-05 -4.07275e-06 -3.84553e-05 0.000853489 0.000427461 0.004 797.402 -3.7172 
21 1 1 0.0234243 0.0396338 0.00391497 0 0 0 4.29426e-07 -5.58559e-06 -3.48837e-07 4.09937e-08 5.74043e-06 3.40096e-06 0.000878607 0.000180628 0.000335328 0.004 799.476 -0.896304 
325 1 1 -0.0222387 0.0402984 0.0039395 0 0 0 -1.60305e-05 8.90944e-07 -4.68465e-06 -7.68273e-09 -1.24122e-05 -5.17378e-07 0.00126736 -0.00263203 -0.00341453 0.004 300.401 0.648325 
595 1 1 -0.014931 0.0435393 0.0039825 0 0 0 -6.55952e-06 -2.43109e-06 9.72674e-07 6.49556e-06 -1.87518e-05 1.44226e-05 -0.000855361 0.000466667 -0.00090183 0.004 307.318 6.44934 
568 1 1 0.0162912 0.0430934 0.00392629 0 0 0 -1.82303e-06 -5.65392e-06 9.00101e-07 5.32112e-06 4.08301e-06 5.3578e-06 0.000945065 -0.000276979 -0.000291055 0.004 794.961 -5.8461 
387 1 1 -0.00719691 0.045487 0.0038993 0 0 0 -5.56892e-06 -3.83272e-07 -4.29293e-06 1.85858e-06 -1.16642e-05 9.85766e-06 0.000532315 -0.00068207 -0.000678634 0.004 377.443 29.237 
852 1 1 0.000758891 0.0460615 0.00397615 0 0 0 -5.3281e-06 -2.09417e-06 1.97246e-07 -1.99372e-07 -4.62005e-07 1.11729e-05 7.05004e-05 -0.000766087 -0.00122267 0.004 638.638 -43.6391 
157 1 1 0.00865318 0.0452493 0.00389823 0 0 0 -1.81624e-06 -4.70513e-06 2.59071e-06 1.59996e-06 -2.95456e-06 8.8416e-06 0.000310544 -0.000262393 0.000245472 0.004 764.988 -23.4489 
400 1 1 -0.0247521 -0.0387964 0.00974416 0 0 0 4.12159e-05 -3.63992e-06 3.40169e-05 2.84389e-06 -1.98388e-05 -5.38223e-07 0.00521978 -0.00311206 -0.00704651 0.004 300.176 0.374649 
606 1 1 -0.000653961 -0.0387265 0.00813907 0 0 0 -2.16681e-05 5.87876e-06 -1.03694e-05 -3.25886e-05 -5.86948e-05 -7.61621e-05 0.0150011 -0.0138955 0.00222499 0.004 493.864 31.8461 
724 1 1 -0.0339144 -0.0311598 0.00984798 0 0 0 2.48736e-05 -5.41067e-06 1.3198e-05 3.13855e-06 -5.44646e-06 -1.23779e-05 -0.000248713 0.00164112 0.000257101 0.004 300.015 0.0395445 
183 1 1 0.0251945 -0.0311656 0.00751484 0 0 0 -1.7066e-05 -9.26647e-06 -2.40176e-05 5.36046e-05 -2.73815e-06 2.23722e-05 -0.00377206 0.00289725 0.000356473 0.004 799.41 -0.969876 
544 1 1 -0.0140218 -0.0253028 0.00874964 0 0 0 3.65411e-05 2.63105e-05 7.39888e-05 -1.42511e-05 3.79227e-05 -6.48427e-05 0.00241216 -0.0064667 0.00146283 0.004 308.529 9.28472 
29 1 1 -0.00450631 -0.0263793 0.00900748 0 0 0 -1.23986e-05 5.10311e-05 4.30532e-05 1.39968e-06 -6.98775e-05 -0.000111016 -0.0101364 -0.00451092 -0.00444663 0.004 360.715 36.3401 
248 1 1 0.00349894 -0.0278425 0.00763334 0 0 0 -1.39415e-05 3.29584e-05 -1.51222e-05 1.69015e-05 -8.17382e-05 -0.00016072 0.000427945 -0.0107937 -0.00452453 0.004 684.359 -37.0927 
79 1 1 0.0358369 -0.0289489 0.00959645 0 0 0 -4.98789e-06 -2.70676e-06 -1.00852e-05 2.68773e-05 4.29334e-06 4.9807e-05 0.00287115 -0.000801857 0.00231096 0.004 799.984 -0.0411731 
291 1 1 -0.00458882 -0.0173974 0.0090954 0 0 0 -6.28601e-06 3.06619e-05 5.51652e-05 8.35719e-05 5.50432e-06 -0.000171166 0.00206539 -0.00521133 -0.00706111 0.004 439.866 26.0151 
891 1 1 0.00373479 -0.015528 0.00632528 0 0 0 -2.11383e-05 -1.51194e-05 -2.05562e-06 5.93069e-05 1.34602e-05 -0.000125432 -0.00967302 -0.0048768 -0.00543848 0.004 650.899 -26.7269 
870 1 1 0.0138321 -0.0156364 0.00831038 0 0 0 -2.44308e-05 -1.90386e-05 -8.12185e-05 6.61623e-05 3.49857e-05 -1.80584e-05 0.017573 -0.0114056 -0.00278189 0.004 790.633 -10.1257 
777 1 1 0.0349688 -0.0187781 0.00771006 0 0 0 -2.66973e-05 1.39412e-05 6.2765e-07 9.71193e-05 4.73709e-05 -9.13309e-06 0.0111907 -0.00576057 0.003497 0.004 799.989 -0.0260156 
837 1 1 -0.0294491 -0.0146727 0.00803311 0 0 0 3.53941e-05 3.14367e-06 3.11033e-05 8.42425e-05 3.51116e-05 2.58511e-05 -7.84863e-05 -0.00289648 -0.00329424 0.004 300.08 0.167235 
445 1 1 -0.018136 -0.0138492 0.00995262 0 0 0 1.26398e-05 -3.24399e-06 0.000101477 4.75988e-05 3.87562e-05 -1.50628e-05 -0.00809791 -0.0123697 0.000230154 0.004 303.687 4.25374 
783 1 1 0.00485876 -0.00860647 0.00993788 0 0 0 -5.72691e-05 -8.49317e-06 -3.61991e-05 0.000122408 -2.09728e-05 -7.52055e-05 -0.00391593 -0.00654736 0.000267275 0.004 712.239 -41.5065 
615 1 1 -0.0351 -0.000758598 0.00955169 0 0 0 1.41365e-06 -5.74922e-06 1.70641e-05 4.79435e-05 -3.95433e-05 2.69946e-05 0.00237139 -0.000478337 0.000204161 0.004 300.01 0.0252295 
476 1 1 -0.0459522 0.00262143 0.00988973 0 0 0 2.46991e-06 1.81379e-07 1.26315e-05 1.63521e-05 -1.65913e-05 1.51008e-05 0.00161298 -0.000994582 -0.00108998 0.004 300 0.000141088 
16 1 1 -0.0210456 0.00169452 0.00830913 0 0 0 -7.46518e-07 -5.26639e-06 2.89768e-05 3.17845e-05 -9.17756e-06 1.63355e-05 0.00234221 -0.00234553 0.00245395 0.004 301.134 1.74827 
303 1 1 0.0459491 0.00350456 0.00962663 0 0 0 -3.41858e-06 2.24652e-05 -3.10609e-05 -1.6528e-05 1.92229e-05 3.93606e-06 0.00726432 -0.00736874 -0.00354205 0.004 800 -0.000239741 
523 1 1 -0.0389798 0.0080309 0.00932849 0 0 0 5.7666e-06 2.38074e-06 1.70342e-05 6.10184e-06 -3.54079e-05 2.20856e-05 -0.00039224 0.00171004 0.00057006 0.004 300.002 0.00638703 
704 1 1 -0.010798 0.00519239 0.00743847 0 0 0 -2.75285e-05 4.74981e-06 3.00829e-05 -1.45263e-05 -5.04492e-05 4.10483e-05 -0.00478708 0.00264595 0.00212809 0.004 326.851 16.5185 
454 1 1 0.00101178 0.00715946 0.00933958 0 0 0 -6.33778e-05 -2.03207e-05 -2.39642e-05 -3.06598e-05 -3.56541e-05 -8.69603e-06 0.00322344 0.00594079 -0.000671351 0.004 570.847 -21.9188 
31 1 1 0.0102164 0.00547594 0.00832603 0 0 0 -8.34968e-05 -2.8848e-05 -5.08974e-05 -4.08178e-06 2.68357e-05 -1.18965e-05 0.00431373 0.00207344 -0.00527618 0.004 767.63 -22.197 
135 1 1 0.0188884 0.00749167 0.00960798 0 0 0 -3.63955e-05 1.20943e-05 -6.62722e-05 2.77386e-05 3.47148e-05 -2.88223e-05 -0.00629479 0.0131051 -0.00928036 0.004 799.388 -1.04472 
712 1 1 0.0281137 0.00743253 0.00998877 0 0 0 -1.25472e-05 1.26385e-05 -6.95425e-05 2.19439e-05 3.59611e-05 -2.54865e-05 -0.0107438 0.0137871 0.00791646 0.004 799.942 -0.130189 
210 1 1 0.0394933 0.00814595 0.0098989 0 0 0 1.05214e-05 4.96047e-05 -4.10608e-05 3.54173e-07 2.50556e-05 1.78047e-05 0.00428778 -0.000848066 -0.00369656 0.004 799.999 -0.00217156 
651 1 1 -0.0437988 0.0143398 0.00823561 0 0 0 8.70478e-07 1.91604e-06 6.20677e-06 2.83453e-06 -9.98333e-06 1.1817e-05 0.000682579 0.000203662 -3.76151e-05 0.004 300 0.000898422 
621 1 1 0.0437181 0.0147845 0.0090077 0 0 0 1.43994e-05 2.98829e-05 -1.28879e-05 -1.75475e-05 1.91297e-05 -1.91336e-06 0.00398426 -0.000222483 -0.0028307 0.004 799.998 -0.00562565 
726 1 1 -0.0257657 0.0199973 0.00692817 0 0 0 -1.37043e-05 3.48875e-06 3.11031e-06 -6.14396e-06 -2.78435e-05 2.45918e-05 0.00253178 0.00393074 0.00211191 0.004 300.112 0.23791 
230 1 1 -0.00847467 0.0245952 0.00973762 0 0 0 -1.86653e-05 1.63597e-06 -2.06345e-05 6.75782e-06 -9.95249e-05 5.96936e-05 0.00320145 -0.00304358 -0.00538147 0.004 346.882 28.1166 
320 1 1 -0.00171264 0.0204052 0.00979379 0 0 0 -1.85565e-05 -1.99179e-05 -8.69555e-06 -2.68912e-05 -7.74114e-05 2.42506e-05 -0.00141067 -0.000745191 -0.00121196 0.004 423.127 41.224 
7 1 1 0.0129211 0.0224303 0.00918518 0 0 0 -1.49392e-05 -3.45383e-05 -1.37175e-05 -2.6617e-05 1.65677e-05 1.47219e-05 -0.00166232 0.00153503 -0.00114918 0.004 782.372 -14.7119 
83 1 1 0.0214164 0.023965 0.00888429 0 0 0 -1.15176e-05 -9.743e-06 -9.78214e-06 -1.03359e-05 6.05896e-05 1.39033e-05 -0.00484729 -0.00106982 -0.00460824 0.004 799.009 -1.56623 
747 1 1 -0.0337321 0.0313836 0.00974065 0 0 0 -1.25243e-05 -1.94102e-06 6.37596e-06 3.72405e-06 -7.70019e-06 6.81851e-06 0.000794046 -0.00405781 -3.54291e-05 0.004 300.023 0.0561588 
51 1 1 -0.0226191 0.0329655 0.00703445 0 0 0 -3.27372e-05 7.96783e-07 -5.70184e-06 -7.56181e-06 -2.45751e-05 4.75674e-06 -0.000761076 0.00381356 0.00197879 0.004 300.122 0.254585 
116 1 1 -0.00940738 0.0391204 0.00809809 0 0 0 -3.19769e-05 -2.47541e-06 -2.52339e-05 3.15762e-05 -4.11897e-05 3.79259e-05 0.00350923 -0.00603062 -0.00312248 0.004 339.792 28.1926 
205 1 1 -0.000560445 -0.0460776 0.0110172 0 0 0 -2.22346e-05 1.7018e-06 -2.36499e-05 -1.56573e-05 -5.21432e-05 -5.71244e-05 -0.0103722 -0.00333717 0.00655656 0.004 409.1 47.4208 
836 1 1 0.00737984 -0.0454688 0.0106612 0 0 0 -1.96909e-06 -1.69377e-05 1.33129e-06 -2.70468e-06 -7.37023e-05 -7.00631e-05 -0.00149748 -0.00110427 -0.0124203 0.004 710.935 -32.1416 
486 1 1 -0.0156916 -0.0402432 0.0103352 0 0 0 3.97047e-05 1.72307e-05 3.74207e-05 -3.05347e-05 -2.5271e-06 -5.38116e-06 -0.000511689 -0.00389195 0.0146038 0.004 303.725 4.7293 
311 1 1 -0.00836811 -0.0439882 0.0106792 0 0 0 -5.7439e-06 4.61962e-05 4.07695e-05 -2.98657e-05 2.99253e-05 -3.44206e-05 -0.00592066 -0.00215141 -0.0077805 0.004 311.711 11.4824 
447 1 1 0.018055 -0.042388 0.0118324 0 0 0 3.463e-06 -1.93517e-07 3.00321e-05 2.6977e-05 -5.27931e-05 -5.90894e-05 0.00442803 0.00068361 -0.00208881 0.004 792.33 -8.38273 
538 1 1 -0.0295743 -0.0353509 0.0149849 0 0 0 3.06723e-05 4.26227e-06 1.6763e-05 -1.31635e-05 -1.49374e-05 3.34079e-06 -0.000995973 -0.00341734 -0.00041625 0.004 300.099 0.205927 
279 1 1 0.0111549 -0.0385416 0.0114155 0 0 0 3.44626e-06 -3.79618e-05 -2.47815e-05 4.04358e-05 -0.000102345 -0.000112881 0.00154681 -0.0105986 0.0103451 0.004 759.43 -23.7887 
110 1 1 0.0250463 -0.0386627 0.0117242 0 0 0 2.55481e-06 -6.11132e-06 -1.55239e-06 5.25736e-05 -1.85192e-05 1.34413e-05 -0.00615055 0.00837462 -0.000773946 0.004 798.912 -1.74607 
188 1 1 -0.0179041 -0.0321006 0.0101564 0 0 0 3.37781e-05 3.58879e-05 6.11742e-05 -2.44402e-05 -2.34998e-05 1.08838e-05 -0.000282579 0.00200655 -0.00584355 0.004 302.933 4.13162 
810 1 1 -0.0102601 -0.0344509 0.0102037 0 0 0 -5.17607e-06 3.98649e-05 5.56301e-05 -1.60614e-05 -2.91139e-05 -4.81516e-05 0.000242921 -0.00376425 0.00238639 0.004 326.999 18.6267 
412 1 1 -0.00316754 -0.0328805 0.0133529 0 0 0 -3.07534e-05 2.21295e-05 6.96478e-05 2.01531e-05 -6.60103e-05 -7.41745e-05 0.00970404 0.00492191 -0.00447132 0.004 428.923 23.6297 
545 1 1 0.0045204 -0.0343087 0.0121944 0 0 0 -3.06122e-05 -2.95932e-05 -2.38554e-05 3.94361e-05 -5.68378e-05 -7.55012e-05 -0.00360038 0.0171089 -0.00577261 0.004 657.821 -23.2425 
100 1 1 0.0115061 -0.030593 0.0117079 0 0 0 -8.94127e-06 -3.36943e-05 -8.5098e-06 5.19495e-05 -6.25529e-05 -0.000109652 0.00977004 -0.0135354 -0.00119486 0.004 768.465 -20.089 