ITEM: TIMESTEP
15200
ITEM: NUMBER OF ATOMS
891
ITEM: BOX BOUNDS mm mm mm
-0.05 0.05
-0.05 0.05
0 0.15
ITEM: ATOMS id type type x y z ix iy iz vx vy vz fx fy fz omegax omegay omegaz radius f_Temp[0] f_heatFlux[0] 
199 1 1 -0.00444383 -0.0458159 0.00397391 0 0 0 -4.71763e-07 -2.33664e-05 -9.31588e-05 2.21891e-05 -5.23194e-05 0.000164242 -0.00611943 -0.0140935 0.0162549 0.004 300 0 
873 1 1 -0.0201484 -0.0414791 0.00390153 0 0 0 -2.81893e-06 2.18278e-05 1.65684e-05 -0.000142244 -5.80385e-05 9.81071e-06 -0.00031596 -0.000986823 0.00222509 0.004 300 0 
485 1 1 -0.0126797 -0.0442534 0.00397233 0 0 0 -7.67784e-06 -5.12181e-06 -5.38681e-05 -2.93818e-05 1.19578e-05 0.000221236 -0.00231599 0.0169123 -0.00195252 0.004 300 0 
850 1 1 0.00335616 -0.044176 0.00393994 0 0 0 2.82585e-05 -5.13858e-05 5.33199e-05 2.08375e-05 7.06527e-05 8.36306e-05 0.00413697 -0.00501667 -0.033775 0.004 300 0 
186 1 1 0.0114406 -0.0445991 0.00392772 0 0 0 -1.54166e-05 -4.74612e-05 2.54853e-06 8.30281e-05 8.924e-05 0.000108384 0.00756572 0.000528524 0.0109836 0.004 300 0 
560 1 1 0.0189691 -0.0420006 0.00394652 0 0 0 -3.88453e-05 1.68496e-06 2.28835e-05 -2.04513e-06 6.25116e-05 -6.99328e-06 0.00567162 -0.00629121 0.00601967 0.004 300 0 
102 1 1 -0.0147504 -0.0357333 0.00386263 0 0 0 -1.55742e-05 3.64433e-05 4.92781e-05 -0.000169224 -5.21863e-05 8.52844e-05 0.00389972 0.00359438 0.00909466 0.004 300 0 
88 1 1 -0.00730784 -0.0383838 0.00392649 0 0 0 -2.44654e-05 -6.33216e-05 3.43058e-05 -7.04866e-05 0.000126016 8.85525e-05 0.027404 -0.0209462 -0.0248419 0.004 300 0 
776 1 1 0.00520387 -0.0354375 0.00394935 0 0 0 -0.000104025 2.67154e-05 -3.71741e-05 2.7207e-05 7.74621e-05 0.000131416 0.0057573 -0.00516172 -0.0194584 0.004 300 0 
410 1 1 0.0130239 -0.0368133 0.00392487 0 0 0 -7.40128e-05 -1.60443e-05 1.56252e-05 0.000147275 0.000169189 0.000201415 -0.00543355 -0.00855202 0.00504435 0.004 300 0 
282 1 1 0.0258762 -0.0381319 0.00388539 0 0 0 -2.13343e-05 4.7095e-05 7.28105e-06 -7.62507e-06 0.000190053 -8.30984e-05 -0.0048608 0.00437791 0.00576577 0.004 300 0 
682 1 1 -0.0302014 -0.0348782 0.00393473 0 0 0 -4.41965e-06 1.71011e-05 1.61343e-05 -6.83322e-05 3.63363e-05 1.33881e-05 -0.0026378 -0.00849321 0.00439739 0.004 300 0 
251 1 1 -0.0224189 -0.0338477 0.0039236 0 0 0 9.95272e-06 2.62851e-05 8.40786e-05 -0.000116443 -2.31468e-05 0.000114026 0.00919104 -0.00407326 -0.00721311 0.004 300 0 
770 1 1 -0.00204732 -0.0321411 0.00393865 0 0 0 -0.000131802 1.70561e-05 5.25094e-05 -0.000194818 -0.000237029 0.000165649 0.0195393 -0.030865 -0.00359482 0.004 300 0 
883 1 1 0.0181661 -0.0307537 0.0039 0 0 0 -0.000117051 5.7336e-05 8.00613e-05 0.000188703 0.000432557 6.94466e-09 -0.0168445 -0.0354204 0.0227143 0.004 300 0 
838 1 1 0.0320341 -0.0331089 0.00396109 0 0 0 -2.05334e-05 4.05226e-05 7.07923e-05 2.29069e-06 0.000160524 -3.95982e-05 0.0201292 -0.020104 -0.00731158 0.004 300 0 
617 1 1 -0.0372519 -0.0271219 0.00391654 0 0 0 -1.66709e-05 1.97216e-05 7.65924e-06 -3.19617e-05 -3.97902e-05 8.57739e-06 0.00168424 -0.00122197 0.0040838 0.004 300 0 
824 1 1 -0.0292993 -0.0270304 0.00392981 0 0 0 -3.89559e-05 2.25116e-05 5.63681e-05 -2.19806e-05 -4.87074e-05 6.16424e-05 0.0056438 -0.0117362 0.00448816 0.004 300 0 
571 1 1 -0.0202616 -0.0262215 0.00393256 0 0 0 -7.93504e-06 7.07305e-05 0.000162879 6.45644e-05 -2.28211e-05 0.000200725 -0.00268908 -0.000737055 0.0261336 0.004 300 0 
861 1 1 -0.00959331 -0.0297306 0.00389609 0 0 0 -5.39484e-05 8.37563e-05 3.97977e-05 -0.000216253 -2.16331e-05 9.55348e-05 -0.00029689 0.00496203 -0.00603067 0.004 300 0 
434 1 1 0.0103457 -0.0293809 0.0039366 0 0 0 -8.52199e-05 -1.37862e-05 8.943e-06 -2.98739e-05 0.00020988 4.65062e-05 0.00849028 -0.000503456 -0.00291581 0.004 300 0 
103 1 1 0.031155 -0.0252351 0.00394366 0 0 0 2.61307e-05 6.82677e-05 9.41643e-05 4.49554e-05 0.000184918 0.000111233 -0.0299945 0.0297329 -0.00196016 0.004 300 0 
769 1 1 -0.041344 -0.020282 0.00398232 0 0 0 -1.24449e-05 4.50578e-05 -3.40315e-05 7.05763e-05 -2.69968e-05 3.57322e-05 -0.0197163 -0.00218248 0.00299572 0.004 300 0 
94 1 1 -0.0333715 -0.0202172 0.00394324 0 0 0 -1.42385e-05 3.98614e-05 3.19205e-05 6.92739e-05 -8.2909e-05 7.01816e-05 -0.00358197 -0.0109908 -0.010301 0.004 300 0 
40 1 1 -0.0254011 -0.0201463 0.00391713 0 0 0 -2.14931e-05 2.44631e-05 0.000140789 0.000120154 -0.000145826 6.56378e-05 0.000483542 -0.0155816 -0.0169229 0.004 300 0 
19 1 1 -0.00865167 -0.0218804 0.00393884 0 0 0 6.48961e-05 0.000116872 0.000127754 6.09636e-05 -3.82942e-05 5.19537e-05 -0.000280597 0.014974 -0.017781 0.004 300 0 
442 1 1 -0.000437624 -0.0218497 0.00393459 0 0 0 9.8504e-05 0.000201527 9.34141e-05 7.51378e-05 -4.66926e-05 8.54857e-06 -0.00969809 0.0116275 -0.0203685 0.004 300 0 
259 1 1 0.0075316 -0.0219998 0.00392457 0 0 0 6.42179e-05 9.45181e-05 5.52793e-05 0.000137407 3.90541e-05 -0.000152597 -0.0155187 0.0215416 -0.0379822 0.004 300 0 
512 1 1 0.0153884 -0.0232357 0.00397815 0 0 0 -4.98052e-05 1.09934e-05 1.7908e-05 -1.39786e-05 0.000236209 -0.000112989 -0.00912956 -0.0144433 0.00504063 0.004 300 0 
470 1 1 0.0232619 -0.0243598 0.00390795 0 0 0 -3.3107e-05 3.97778e-05 0.000107971 2.79951e-05 0.000410397 3.46196e-05 -0.00435568 -0.0140161 0.00463658 0.004 300 0 
451 1 1 0.0390294 -0.024487 0.00392079 0 0 0 -9.16537e-06 -1.05535e-05 -3.23909e-05 5.9028e-05 0.000104086 4.39535e-05 0.00455675 -0.0044889 -0.00473138 0.004 300 0 
531 1 1 -0.0164597 -0.0192003 0.003961 0 0 0 -6.24702e-05 0.000125074 0.000112807 0.000107051 -5.61609e-05 0.00017875 -0.0234642 -0.0233788 -0.0021553 0.004 300 0 
229 1 1 0.0202064 -0.0169136 0.00386872 0 0 0 3.83195e-05 1.3731e-05 9.24368e-05 6.81573e-05 0.000168421 3.3158e-05 0.00413016 0.00910069 -0.0107053 0.004 300 0 
734 1 1 0.0280528 -0.0179431 0.00394383 0 0 0 -6.93992e-07 1.55527e-05 2.96708e-05 0.00010518 0.00019721 0.000130346 0.00102695 0.00698449 0.00900511 0.004 300 0 
635 1 1 0.042598 -0.0174487 0.00392221 0 0 0 -1.62872e-05 -6.74486e-05 4.6832e-07 -5.60041e-05 0.000164552 -2.2131e-05 0.0132725 -0.000669806 -0.00563521 0.004 300 0 
87 1 1 -0.0448218 -0.0104655 0.00391428 0 0 0 -1.80841e-05 -2.93056e-05 1.52345e-06 2.53745e-05 -7.38014e-05 7.63826e-06 0.0123124 0.00065846 -0.00491039 0.004 300 0 
406 1 1 -0.0373944 -0.0133915 0.00396032 0 0 0 -6.20466e-05 3.4992e-05 -6.72382e-05 7.64784e-05 -2.81954e-05 3.72656e-05 -0.00679726 -0.0190309 0.018105 0.004 300 0 
224 1 1 -0.0230583 -0.0126019 0.00387914 0 0 0 0.00021499 -4.10382e-05 0.00017766 0.00025267 -0.000124507 0.000125026 0.0159238 0.0520614 -0.0343607 0.004 300 0 
751 1 1 -0.0103001 -0.0141544 0.00396891 0 0 0 0.00016634 0.000108726 0.000179297 0.000134508 2.41089e-05 2.83453e-05 -0.00433817 -0.00203074 -0.019653 0.004 300 0 
622 1 1 -0.00273451 -0.0117408 0.00388444 0 0 0 0.000220888 0.000116223 0.000214659 4.44398e-05 5.87363e-05 -3.25493e-05 -0.0191394 0.0264818 0.00539645 0.004 300 0 
128 1 1 0.00951193 -0.0106861 0.00388357 0 0 0 0.000173144 0.000178009 0.000224294 3.89472e-05 -1.15159e-05 -0.000122228 -0.0327819 0.0178614 -0.032898 0.004 300 0 
68 1 1 0.0262825 -0.0102115 0.0039541 0 0 0 6.23285e-05 2.74884e-05 0.00012158 0.000117533 0.000109599 8.16149e-05 0.00312417 0.00782199 -0.0247245 0.004 300 0 
791 1 1 0.0340944 -0.0118659 0.0039279 0 0 0 0.000107647 0.000101391 6.77823e-05 5.27585e-06 -0.000121852 5.65379e-05 -0.0127195 0.0154345 -0.097194 0.004 300 0 
354 1 1 -0.0380763 -0.00550443 0.00392052 0 0 0 2.58735e-05 9.22421e-06 -4.15192e-05 0.000213455 7.64891e-05 -1.56613e-06 0.0076633 0.00801358 -0.0329242 0.004 300 0 
725 1 1 -0.0304916 -0.00800414 0.00392479 0 0 0 1.05981e-05 -7.42616e-05 -1.74334e-05 0.000160993 -0.000141762 -7.26431e-05 0.013344 0.00317157 -0.0266689 0.004 300 0 
353 1 1 -0.016129 -0.00879796 0.00391112 0 0 0 0.000235061 -9.82332e-06 0.000159957 0.000136372 -1.64976e-05 4.0263e-05 0.0272804 0.0167303 0.0210834 0.004 300 0 
391 1 1 -0.00857682 -0.0063974 0.00391323 0 0 0 0.000238486 0.000109268 0.000157979 6.44266e-05 6.74966e-05 -8.50586e-05 -0.00780411 0.0317219 -0.0016684 0.004 300 0 
683 1 1 0.0173545 -0.00945668 0.00390981 0 0 0 0.000125896 2.00612e-05 0.000139209 6.67631e-05 -5.30238e-05 2.6136e-05 -0.00657941 0.0181959 -0.01147 0.004 300 0 
690 1 1 0.0385534 -0.00520217 0.00390025 0 0 0 0.000111558 -4.03128e-05 4.16176e-05 0.000131018 0.000108387 -3.0012e-05 0.00424827 0.0208751 -0.0213893 0.004 300 0 
10 1 1 0.0449636 -0.00990857 0.00397375 0 0 0 -3.68107e-06 -6.11026e-05 4.43482e-05 8.59691e-05 3.54992e-05 3.80635e-06 0.00438055 -0.00759433 0.00531664 0.004 300 0 
402 1 1 -0.0460167 -0.00264307 0.003922 0 0 0 3.17143e-05 5.32569e-07 2.97089e-05 0.000100446 -1.97113e-05 -3.59817e-05 -0.00635293 -0.00147218 -0.00620632 0.004 300 0 
761 1 1 -0.0294742 -0.000167903 0.00392565 0 0 0 0.00015151 -5.4966e-05 4.85994e-05 6.71878e-05 3.11963e-05 -0.000102651 0.00788628 0.0199512 0.00606967 0.004 300 0 
293 1 1 -0.0229323 -0.00466858 0.00395945 0 0 0 0.000199937 -1.81975e-06 9.51791e-05 8.78322e-05 3.71611e-05 -1.33094e-05 -0.025738 0.00911196 0.00770512 0.004 300 0 
384 1 1 -0.0145962 -0.000937415 0.00398137 0 0 0 0.000969439 0.0012522 -0.000118425 -0.000291012 -0.000500718 -7.51866e-05 -0.33548 0.25829 0.504054 0.004 300 0 
378 1 1 0.00130676 -0.0049047 0.00392875 0 0 0 0.000133973 0.000161947 0.000161978 -5.00897e-05 1.48589e-05 -6.59173e-05 -0.0334656 -0.0133865 0.0119678 0.004 300 0 
390 1 1 0.0103713 -0.00276618 0.00396859 0 0 0 0.000228352 0.000103482 0.000133649 6.171e-05 -0.000187789 -0.000213967 -0.00839426 0.0268889 0.0297688 0.004 300 0 
411 1 1 0.0223616 -0.00329337 0.00397603 0 0 0 1.7924e-05 4.11354e-05 0.000139402 -6.38479e-05 8.22864e-05 2.61084e-05 0.0078999 -0.00300518 0.0420249 0.004 300 0 
342 1 1 0.0307347 -0.00361662 0.00397448 0 0 0 0.000135448 8.99219e-06 5.77514e-05 0.000153861 -0.000160695 5.05991e-06 -0.010967 0.0229827 0.0132434 0.004 300 0 
262 1 1 0.0460222 -0.00206526 0.00395818 0 0 0 -1.48611e-05 -3.10211e-05 2.09152e-06 0.000110221 -3.62227e-06 3.56193e-05 -0.00863586 -0.0010216 0.00685532 0.004 300 0 
261 1 1 -0.0398217 0.00224591 0.00393494 0 0 0 0.000112089 1.47402e-05 3.81852e-05 0.000132653 8.38379e-05 -0.000149622 0.00907897 0.0166689 0.00637636 0.004 300 0 
666 1 1 -0.0045462 0.000451343 0.00395593 0 0 0 0.000234715 0.000142579 0.000102867 -7.20241e-05 2.90619e-05 -7.83472e-05 -0.00315328 0.0515086 -0.00579512 0.004 300 0 
815 1 1 0.00434405 0.00243516 0.00392723 0 0 0 0.000215048 0.000137613 0.000173973 4.78694e-05 -0.00011134 6.32694e-05 -0.00475995 0.0109576 -0.0385277 0.004 300 0 
306 1 1 0.0163701 0.00247644 0.00395767 0 0 0 5.18459e-05 0.000199865 0.000158774 -6.7428e-05 7.12162e-05 -2.18778e-05 -0.0336073 0.0053913 0.0277329 0.004 300 0 
178 1 1 0.0241044 0.0044411 0.00386112 0 0 0 -3.54853e-05 8.18535e-05 0.000152111 7.90087e-06 0.000118549 6.72417e-05 -0.00571578 -0.00819285 -0.0245747 0.004 300 0 
862 1 1 0.0320656 0.00423361 0.00393094 0 0 0 -1.44867e-05 3.47655e-05 8.69061e-05 0.000105202 -8.14448e-05 6.4029e-05 0.00654388 0.0113926 0.0113085 0.004 300 0 
661 1 1 0.0398754 0.00291406 0.00394677 0 0 0 -1.06102e-06 -1.94391e-05 9.17614e-06 5.3403e-05 -0.000103639 6.15135e-05 0.0119721 0.00230269 -0.0168349 0.004 300 0 
677 1 1 -0.0453781 0.00788542 0.00393645 0 0 0 4.92678e-05 1.94763e-05 3.72676e-05 -2.04599e-05 1.54924e-05 -7.68472e-05 -0.0107498 0.00313948 0.00511622 0.004 300 0 
12 1 1 -0.0333159 0.00671954 0.00393709 0 0 0 0.000145365 8.6753e-06 8.8794e-05 5.40114e-06 0.000161366 -0.000162252 0.0090445 0.013267 -0.00847708 0.004 300 0 
420 1 1 -0.0253994 0.00664843 0.00392716 0 0 0 0.000151866 -2.52381e-08 8.14646e-05 -9.44066e-06 9.38865e-05 -1.32308e-05 0.00372645 0.00866823 0.00176595 0.004 300 0 
654 1 1 -0.0175131 0.0072101 0.00387241 0 0 0 0.000127515 8.1496e-05 0.000105189 -2.58201e-05 2.09018e-05 -3.73615e-05 -0.0144438 0.00906235 0.0400782 0.004 300 0 
145 1 1 -0.00454373 0.00836544 0.0038633 0 0 0 9.27652e-05 0.0001669 0.000136691 0.000107292 -8.48447e-05 -0.000106566 -0.0170082 0.0243879 0.0263517 0.004 300 0 
624 1 1 0.045145 0.00890595 0.00390643 0 0 0 6.92632e-06 -1.65572e-05 2.44429e-05 5.83129e-05 -4.9809e-05 -1.3278e-05 0.00245629 0.00241196 0.0149107 0.004 300 0 
613 1 1 -0.0372989 0.0135338 0.00384368 0 0 0 8.92719e-05 5.08288e-05 8.52741e-05 -1.27671e-05 0.000142907 -0.000166701 -0.0176109 0.00902392 0.0182458 0.004 300 0 
265 1 1 -0.0293059 0.0135428 0.00396393 0 0 0 0.000141119 5.50209e-05 9.57249e-05 -9.68933e-05 0.000171573 -0.000165237 -0.00133637 0.0156098 0.00342822 0.004 300 0 
273 1 1 -0.0213693 0.0141273 0.00392974 0 0 0 7.49651e-05 3.26941e-05 6.05888e-05 -8.19863e-05 6.69801e-05 1.71258e-05 -0.015358 0.0168968 -0.019979 0.004 300 0 
492 1 1 -0.0114496 0.0123719 0.00398085 0 0 0 -3.58988e-05 0.00017008 5.83981e-05 0.000134931 -0.000147653 4.44625e-05 -0.0346935 -0.0326056 -0.0117816 0.004 300 0 
234 1 1 0.00585319 0.0103928 0.00392914 0 0 0 8.15237e-05 0.000122138 0.000110803 0.000254063 -0.000220721 -6.62942e-05 -0.0243796 0.00935573 0.0301012 0.004 300 0 
160 1 1 0.014284 0.0106358 0.00390971 0 0 0 6.85486e-05 0.000168679 0.000169073 0.000212804 -1.57618e-05 0.000165321 -0.0344321 0.0128162 0.0462619 0.004 300 0 
484 1 1 0.0220894 0.0120733 0.00390145 0 0 0 8.06901e-05 0.00019248 0.000103771 7.25777e-05 0.00012264 -3.00563e-05 -0.026293 0.0186263 -0.0171902 0.004 300 0 
743 1 1 0.0300186 0.0126219 0.00398106 0 0 0 5.4311e-05 0.000168112 1.58002e-05 3.62094e-05 2.16696e-05 -8.52168e-05 -0.0564837 0.00539242 0.00880683 0.004 300 0 
514 1 1 0.037954 0.013018 0.00386883 0 0 0 -1.37509e-05 2.58451e-06 4.06774e-05 9.44404e-05 -5.11466e-05 -5.89553e-05 0.00855153 -0.00731031 -0.024397 0.004 300 0 
530 1 1 -0.0158998 0.0198648 0.0039281 0 0 0 9.53013e-05 -8.1646e-05 6.04558e-05 -4.99808e-05 -9.48094e-05 0.000132556 0.0284463 0.0060014 -0.0116673 0.004 300 0 
227 1 1 -0.00736468 0.0192086 0.00396629 0 0 0 4.39058e-05 5.36375e-05 0.0001088 -2.94967e-05 -5.48529e-05 -3.36766e-05 0.0128582 0.0081971 0.00244275 0.004 300 0 
392 1 1 -0.000498566 0.0151513 0.00394457 0 0 0 4.96987e-05 0.000117628 0.000105106 0.000265562 -0.000270567 3.64288e-06 -0.00318493 0.00988729 -0.0220462 0.004 300 0 
493 1 1 0.0098581 0.0172528 0.00394658 0 0 0 5.18544e-05 0.000131542 9.42889e-05 0.000177729 -3.90671e-05 0.000192777 -0.0132031 -0.00289713 -0.0361146 0.004 300 0 
34 1 1 0.0176354 0.018785 0.00394111 0 0 0 0.00011404 0.000116295 0.000124717 5.6671e-05 -0.000156378 0.000130034 -0.0376737 0.011057 0.0318145 0.004 300 0 
206 1 1 0.0255396 0.0192349 0.00396973 0 0 0 8.80896e-05 9.187e-05 4.89386e-05 9.44743e-06 -3.2788e-05 -1.36575e-05 0.026001 0.0285693 -0.0169374 0.004 300 0 
104 1 1 0.0334175 0.0199339 0.00389625 0 0 0 -8.75994e-06 -2.82824e-05 5.89531e-05 2.93248e-05 -0.000122408 4.07614e-05 0.0134112 -0.0154574 -0.00999531 0.004 300 0 
809 1 1 -0.0412058 0.0204948 0.00395507 0 0 0 1.69487e-05 1.72445e-05 4.33284e-05 -1.06154e-05 9.14325e-05 1.92054e-05 0.0026257 -0.00542627 -0.000931933 0.004 300 0 
773 1 1 -0.0331521 0.020453 0.00393554 0 0 0 0.000135373 4.48527e-05 0.000163761 -6.83562e-05 0.000225175 -0.00023439 -0.00554061 0.0134331 0.00461999 0.004 300 0 
792 1 1 0.00347652 0.0219732 0.00392129 0 0 0 5.24112e-05 0.000119683 -1.93749e-06 3.16424e-06 -6.26e-05 0.00021279 -0.031877 -0.00294328 0.0274652 0.004 300 0 
718 1 1 0.0413201 0.0203651 0.00392969 0 0 0 -1.06361e-05 -2.57741e-05 3.87482e-05 5.86781e-05 -4.55025e-05 -3.28006e-05 0.00458903 0.00671121 0.00574454 0.004 300 0 
101 1 1 -0.0371145 0.0272993 0.00390424 0 0 0 8.02467e-05 1.21571e-05 7.88413e-05 9.0492e-05 0.000197041 -8.45098e-05 -0.00976654 0.00940684 0.000648917 0.004 300 0 
246 1 1 -0.0290565 0.0272807 0.0039828 0 0 0 0.000163432 5.11547e-05 0.000138472 2.76602e-06 1.69394e-05 -7.05034e-05 -0.014738 0.00766816 0.00382965 0.004 300 0 
331 1 1 -0.021228 0.0257797 0.0039004 0 0 0 0.000187381 3.55052e-05 0.000149179 7.96573e-05 0.00013557 5.13412e-05 -0.00362875 0.0264521 -0.0224352 0.004 300 0 
846 1 1 -0.0134708 0.0274169 0.00397493 0 0 0 0.000194971 -7.42864e-05 8.26448e-05 0.000195392 -0.00021697 -1.35189e-05 -0.0126829 0.0149626 -0.0191715 0.004 300 0 
348 1 1 -0.00329918 0.0260613 0.00393396 0 0 0 8.00689e-05 3.26485e-07 -2.99874e-05 -0.000105905 9.56111e-07 5.74253e-05 -0.0136705 0.022593 -0.0114055 0.004 300 0 
786 1 1 0.00840335 0.0281544 0.00389696 0 0 0 3.15032e-05 0.000125385 -6.00968e-05 1.93233e-05 4.90785e-05 0.000141875 -0.0312177 -0.00950218 -0.0170638 0.004 300 0 
316 1 1 0.016283 0.0272926 0.00390641 0 0 0 0.000119434 2.66165e-05 -2.93466e-05 7.57113e-05 -8.73412e-05 -5.14823e-05 -0.00645177 0.0203146 0.00466275 0.004 300 0 
495 1 1 0.0288861 0.0264612 0.00396733 0 0 0 3.66285e-05 4.9918e-05 2.69107e-05 4.90575e-06 -7.27295e-05 -1.77567e-05 -0.0187126 -0.00326704 0.00537501 0.004 300 0 
863 1 1 0.0367263 0.0277632 0.00392941 0 0 0 -4.11663e-06 1.86563e-05 4.88874e-05 5.69217e-05 -8.62484e-05 -1.91163e-05 -0.00170346 0.00103293 -0.0112219 0.004 300 0 
511 1 1 -0.00761834 0.0327131 0.00388583 0 0 0 0.000110898 -5.90189e-05 8.19254e-05 -9.33557e-05 8.73577e-05 -9.77007e-05 0.0305418 0.0277896 0.0319229 0.004 300 0 
722 1 1 0.0016404 0.0322872 0.00396662 0 0 0 3.94386e-06 2.63586e-05 -2.93374e-05 -6.27517e-05 0.000103815 0.000223674 0.0325653 0.00385092 0.0263454 0.004 300 0 
2 1 1 0.0229309 0.0316956 0.00396263 0 0 0 7.04441e-05 1.32537e-05 -3.16625e-05 -2.56703e-05 -6.63816e-05 -8.60508e-05 0.0129345 0.00483033 -0.00125204 0.004 300 0 
254 1 1 0.0306766 0.034268 0.00398157 0 0 0 -0.00023262 -0.00245703 -1.13887e-05 5.23795e-05 5.85948e-05 -0.000120112 0.649968 -0.0925578 -0.169921 0.004 300 0 
257 1 1 -0.0296318 0.0352232 0.00395608 0 0 0 0.00012747 -1.23338e-05 7.73431e-05 -0.000260288 -0.000110218 0.000139261 -0.00133026 0.0146657 0.00724345 0.004 300 0 
582 1 1 -0.0157645 0.0356203 0.00393248 0 0 0 0.000148151 0.000392901 6.7523e-05 -0.000497141 5.94914e-05 0.0001254 -0.111405 0.0182509 0.0636785 0.004 300 0 
255 1 1 -0.00267109 0.038932 0.00391194 0 0 0 -7.92884e-05 3.44522e-05 3.49505e-05 -0.000229658 -2.655e-05 0.00019741 -0.0229204 -0.0158482 0.0160458 0.004 300 0 
887 1 1 0.00812123 0.0373179 0.00392916 0 0 0 -4.63054e-05 -4.59381e-05 -7.93857e-05 -0.000488509 0.000235391 0.000176816 0.0100819 -0.0159774 -0.00236083 0.004 300 0 
719 1 1 0.0157855 0.035195 0.00398368 0 0 0 2.34599e-05 -1.28112e-05 -1.40469e-05 -0.000484892 -0.000144273 0.000154205 0.00888493 -0.00740348 0.0145438 0.004 300 0 
21 1 1 0.0234246 0.0396335 0.00391501 0 0 0 9.74847e-06 6.84549e-06 3.33967e-05 -0.000171875 -9.89852e-05 8.25846e-05 -0.00371388 -0.00212516 0.00445313 0.004 300 0 
325 1 1 -0.0222382 0.0402983 0.00393962 0 0 0 -5.43384e-06 1.45683e-05 7.49191e-05 -0.000298609 6.99402e-05 -4.12957e-05 0.0102102 0.00410311 0.0229998 0.004 300 0 
595 1 1 -0.0149308 0.0435392 0.00398264 0 0 0 2.0786e-05 0.000111463 -0.000190782 -0.000196127 4.12762e-05 0.000170085 0.0238391 0.0596202 -0.00789364 0.004 300 0 
568 1 1 0.0162916 0.0430933 0.00392639 0 0 0 2.42945e-06 1.02793e-05 5.8707e-06 -0.000331307 -4.07845e-05 0.000113608 -0.00670441 0.00189965 -0.00223541 0.004 300 0 
387 1 1 -0.00719701 0.0454868 0.00389954 0 0 0 -0.000144824 6.65982e-07 -7.12394e-05 7.4698e-05 0.000126883 0.000269277 0.0153916 -0.0575025 -0.016757 0.004 300 0 
852 1 1 0.000758923 0.0460615 0.00397642 0 0 0 -5.32972e-05 5.25341e-06 -3.93959e-06 -1.49908e-05 4.18695e-05 2.155e-05 0.00563299 0.00741426 -0.00894662 0.004 300 0 
157 1 1 0.00865346 0.045249 0.00389856 0 0 0 -4.26819e-06 1.26095e-05 -2.32751e-05 -0.00027605 0.00013055 -5.39579e-05 -0.00512154 0.000572631 -0.00303822 0.004 300 0 
400 1 1 -0.0247516 -0.0387967 0.00974468 0 0 0 -1.82554e-05 1.02401e-05 1.01497e-05 -0.000199695 -7.69683e-05 -4.26489e-05 0.00430949 0.000943965 0.000752686 0.004 300 0 
606 1 1 -0.000654692 -0.0387273 0.0081371 0 0 0 4.39496e-05 -8.28868e-06 6.73531e-05 -5.65407e-05 2.82372e-05 6.56448e-05 -0.0271352 0.0377123 0.0542007 0.004 300 0 
724 1 1 -0.0339142 -0.0311602 0.0098479 0 0 0 3.22846e-05 4.43054e-05 -1.68278e-06 3.67752e-05 -3.98127e-05 -1.05421e-06 -0.00621635 0.0183165 -0.00238341 0.004 300 0 
183 1 1 0.0251951 -0.0311661 0.00751594 0 0 0 3.79613e-05 8.58659e-05 0.000122461 0.000183197 0.000331137 -1.21304e-05 0.00801961 0.0528266 -0.0109241 0.004 300 0 
544 1 1 -0.0140222 -0.025304 0.00874978 0 0 0 6.45296e-05 0.00012932 0.000191849 4.01192e-06 -4.43818e-06 0.000249711 0.0169833 0.017157 -0.0184752 0.004 300 0 
29 1 1 -0.00450742 -0.02638 0.00900425 0 0 0 6.35214e-05 7.4161e-05 4.25612e-05 -0.000177646 7.96772e-05 0.000288082 0.0316051 0.016715 0.000854111 0.004 300 0 
248 1 1 0.00349911 -0.027842 0.0076302 0 0 0 -3.66642e-05 6.39758e-05 0.000153673 -0.00038102 -0.000138242 0.000168283 -0.0093666 0.0443777 -0.019599 0.004 300 0 
79 1 1 0.0358381 -0.0289479 0.00959768 0 0 0 0.000104659 6.61276e-05 9.42848e-05 0.000177499 0.000147102 8.27452e-05 -0.0364019 0.0694013 -0.0200928 0.004 300 0 
291 1 1 -0.00459007 -0.0173975 0.00909362 0 0 0 0.000300866 0.000144908 0.000324756 0.000283931 -0.000203375 -6.17651e-05 0.0338514 0.000210059 0.0186245 0.004 300 0 
891 1 1 0.00373426 -0.0155274 0.00632363 0 0 0 0.000281688 0.000231933 0.000228258 0.000122989 -6.24478e-05 -7.50597e-05 0.0243991 0.00821904 0.000341712 0.004 300 0 
870 1 1 0.0138339 -0.0156352 0.00831087 0 0 0 0.000210117 4.16615e-05 0.00022179 0.000120217 0.000196605 6.02891e-06 -0.0134799 0.0220118 0.0117094 0.004 300 0 
777 1 1 0.0349641 -0.0187866 0.00772167 0 0 0 6.36014e-06 6.01648e-05 -7.33606e-05 1.45005e-06 -0.000126743 0.000286025 0.0516057 0.0123404 0.041061 0.004 300 0 
837 1 1 -0.0294506 -0.0146722 0.00803068 0 0 0 -4.50731e-05 2.36985e-05 0.000166862 0.000391084 -0.000198966 8.15481e-05 0.000209454 -0.0547422 0.011139 0.004 300 0 
445 1 1 -0.0181359 -0.0138513 0.00995122 0 0 0 0.00045166 9.4934e-05 0.000388556 0.000441318 -3.35674e-05 0.00028886 0.0208009 -0.0308656 0.0763323 0.004 300 0 
783 1 1 0.00486124 -0.00860698 0.00993719 0 0 0 0.000299553 0.000322696 0.000412302 2.89859e-05 -1.06749e-05 -0.000144306 0.0157045 0.0205784 0.0420206 0.004 300 0 
615 1 1 -0.0351 -0.000758847 0.00955165 0 0 0 0.000262534 -0.000157101 1.00329e-05 0.000185685 0.000203471 -0.000106611 0.0180324 -0.0108608 -0.0335889 0.004 300 0 
476 1 1 -0.0459521 0.00262068 0.00988911 0 0 0 6.86775e-05 3.50084e-05 6.36916e-05 2.90257e-05 9.32999e-05 -0.000195716 0.00854891 -0.00375209 -0.0104279 0.004 300 0 
16 1 1 -0.0210453 0.00169463 0.00830972 0 0 0 0.000268813 1.96e-05 0.000115339 6.43653e-05 6.29535e-05 -0.000199611 -0.00107384 -0.0199053 -0.0098029 0.004 300 0 
303 1 1 0.0459487 0.00350356 0.00962637 0 0 0 3.12e-05 -2.12518e-07 6.82218e-06 6.53686e-05 6.35614e-05 2.68119e-05 0.00930285 0.010528 -0.0124515 0.004 300 0 
523 1 1 -0.0389795 0.00803045 0.00932894 0 0 0 0.000161068 -1.30875e-05 0.000124605 -7.4901e-06 0.000308425 -0.000392389 0.0201418 -0.0028751 -0.00915707 0.004 300 0 
704 1 1 -0.0107977 0.00519289 0.00743851 0 0 0 0.000227983 0.000204068 0.000252531 2.51847e-05 5.29698e-05 -0.00011051 -0.00442837 -0.0152542 0.0150351 0.004 300 0 
454 1 1 0.00101228 0.00715906 0.00934014 0 0 0 0.000253104 0.000323869 0.000172172 4.13191e-05 6.79868e-05 -1.52444e-05 -0.0269875 -0.00717884 0.0132656 0.004 300 0 
31 1 1 0.0102166 0.00547546 0.00832601 0 0 0 0.000273467 0.000251007 0.000384924 9.27871e-05 -0.00014844 -1.62567e-05 -0.0411783 -0.0133128 0.0159313 0.004 300 0 
135 1 1 0.0188882 0.00749088 0.00960757 0 0 0 0.000159182 0.000339858 0.00017988 0.000374936 0.000359563 0.000159425 8.81257e-05 0.010123 -0.0360627 0.004 300 0 
712 1 1 0.0281135 0.00743262 0.0099881 0 0 0 -1.35695e-05 4.45687e-05 0.000308881 0.0004091 0.000343983 4.41607e-05 0.0125025 0.00387416 -0.0093186 0.004 300 0 
210 1 1 0.0394933 0.00814498 0.0098985 0 0 0 -3.36892e-05 -7.67817e-06 6.42709e-05 5.27815e-05 0.000100296 -6.19111e-05 -0.0104144 -0.00730623 0.0129328 0.004 300 0 
651 1 1 -0.0437987 0.0143397 0.00823591 0 0 0 6.65745e-05 2.76896e-05 4.90525e-05 -6.59722e-05 8.38533e-05 -6.60389e-05 0.00241222 0.00165272 0.00498616 0.004 300 0 
621 1 1 0.0437183 0.0147837 0.00900748 0 0 0 -1.98221e-05 -1.03896e-05 4.12638e-05 0.000163683 -3.9784e-05 -7.44951e-05 -0.0110333 0.00407175 -0.0030466 0.004 300 0 
726 1 1 -0.0257654 0.019997 0.00692877 0 0 0 0.000203856 7.73631e-05 0.000176652 -0.000153839 0.000214461 -0.000253412 0.0316713 0.0180137 0.001551 0.004 300 0 
230 1 1 -0.00847434 0.024595 0.0097385 0 0 0 0.000193834 0.000264811 0.000113088 -0.000130355 1.45406e-05 -0.000148689 -0.0831649 0.0195559 -0.00589531 0.004 300 0 
320 1 1 -0.00171274 0.0204044 0.00979445 0 0 0 0.000175191 0.000303573 0.000184073 0.000212931 -9.20823e-05 -0.000226032 -0.0440388 0.0340702 0.016529 0.004 300 0 
7 1 1 0.0129204 0.0224299 0.00918537 0 0 0 0.000154023 0.000304545 2.53576e-05 0.00031464 1.06372e-05 0.000295398 -0.0507493 -0.0197646 -0.0226925 0.004 300 0 
83 1 1 0.0214168 0.0239651 0.00888376 0 0 0 0.000123679 0.000188145 0.000211932 0.000109265 8.77252e-05 -0.000214254 -0.0551512 -0.0482992 0.0104068 0.004 300 0 
747 1 1 -0.0337317 0.0313833 0.00974116 0 0 0 0.000117921 -2.27775e-06 0.000147244 -9.97846e-05 0.000123826 4.96762e-05 0.000340774 -0.0215379 0.00363888 0.004 300 0 
51 1 1 -0.0226186 0.0329653 0.00703469 0 0 0 0.000267984 8.33197e-05 0.000188929 -0.000358747 6.26401e-05 0.000196184 -0.00860494 -0.0033736 0.040771 0.004 300 0 
116 1 1 -0.00940666 0.0391195 0.00809958 0 0 0 3.02483e-05 5.43237e-05 0.000128845 -0.000254036 -1.30227e-05 3.32894e-05 -0.086495 0.0897543 0.0774713 0.004 300 0 
205 1 1 -0.000560447 -0.0460779 0.0110168 0 0 0 0.000232279 6.83746e-06 0.00013166 -0.000113656 6.61617e-05 5.75356e-05 0.0325411 0.0147799 -0.036897 0.004 300 0 
836 1 1 0.00737934 -0.0454692 0.0106583 0 0 0 9.46495e-05 -3.63534e-05 6.63155e-05 -5.91921e-05 0.00016138 9.90267e-05 -0.0121968 0.029119 -0.000104417 0.004 300 0 
486 1 1 -0.0156966 -0.0402387 0.0103373 0 0 0 3.67754e-05 -7.00183e-05 3.35336e-05 -0.000428212 1.43997e-05 0.000241579 -0.017324 -0.055217 0.0657555 0.004 300 0 
311 1 1 -0.00836946 -0.0439942 0.0106794 0 0 0 0.00027461 2.25489e-05 -0.000277935 0.000146261 -0.000329132 0.000430835 -0.0185892 0.0620544 0.00671657 0.004 300 0 
447 1 1 0.0180543 -0.0423884 0.0118319 0 0 0 -1.01815e-05 5.08176e-05 4.16417e-05 1.47355e-05 8.7109e-05 -3.60443e-05 -0.0166356 0.028284 -0.00513478 0.004 300 0 
538 1 1 -0.0295743 -0.0353514 0.0149853 0 0 0 2.92553e-05 3.1266e-05 1.20064e-05 0.000122262 -8.8869e-05 6.72955e-05 -0.000593557 0.00165082 -0.0112794 0.004 300 0 
279 1 1 0.0111542 -0.0385421 0.0114126 0 0 0 -2.5771e-05 1.13218e-05 8.27501e-05 0.000118648 8.22503e-05 0.000221462 0.00597674 0.00277101 0.0152295 0.004 300 0 
110 1 1 0.0250455 -0.0386633 0.0117246 0 0 0 5.74267e-06 6.22099e-05 -5.94623e-05 -0.000159229 0.00011078 -4.93138e-05 0.00574396 -0.0111041 0.000872043 0.004 300 0 
188 1 1 -0.0179036 -0.0321028 0.0101576 0 0 0 5.15341e-05 6.23422e-05 0.00015513 -0.000170502 -4.58902e-05 0.000184082 -0.00317987 0.00953639 0.0143004 0.004 300 0 
810 1 1 -0.0102613 -0.0344511 0.0102024 0 0 0 -1.81929e-05 4.43696e-05 5.73819e-05 -0.000224202 -9.51131e-06 0.000117007 0.00247725 0.0194715 -0.0151175 0.004 300 0 
412 1 1 -0.00316851 -0.0328821 0.0133484 0 0 0 1.49203e-05 1.97644e-05 -3.74396e-05 -1.83524e-05 1.52966e-05 0.000150959 -0.00756474 -0.00766225 -0.00195659 0.004 300 0 
545 1 1 0.00451964 -0.034309 0.0121898 0 0 0 -4.02194e-06 5.72548e-05 6.16929e-05 0.000109809 1.18833e-05 8.10361e-05 0.0222201 -0.0140471 -0.00897512 0.004 300 0 
100 1 1 0.0115059 -0.0305933 0.0117047 0 0 0 -4.04247e-05 4.83939e-06 0.000100477 8.28946e-05 0.000299669 0.00012466 -0.0136189 0.00430312 -0.00618715 0.004 300 0 
556 1 1 0.0183658 -0.034478 0.0109244 0 0 0 -4.25349e-05 6.25236e-05 6.48167e-05 0.000110986 0.000470965 -3.91904e-05 0.0141912 0.0345284 0.0137385 0.004 300 0 
32 1 1 0.0311341 -0.0339591 0.0134808 0 0 0 0.00013371 3.43497e-05 0.000162392 2.59562e-05 0.000191435 3.78028e-05 0.0861462 0.000969914 -0.0204094 0.004 300 0 
5 1 1 -0.0386746 -0.0250107 0.0114415 0 0 0 -7.65184e-05 3.61195e-05 -2.47499e-05 1.16507e-05 -1.86517e-05 -1.828e-05 -0.0187786 -0.0106223 0.0217458 0.004 300 0 
415 1 1 -0.0253871 -0.0293599 0.0104089 0 0 0 3.62801e-05 4.65966e-05 8.10928e-05 2.3574e-05 2.14283e-05 0.000219591 -0.0365441 0.0350201 -0.0268652 0.004 300 0 
446 1 1 -0.0096874 -0.0280497 0.0148321 0 0 0 0.00016095 2.02623e-05 0.000185444 -2.44277e-06 2.52179e-05 0.000213264 -0.00505685 0.0148249 -0.0110205 0.004 300 0 
814 1 1 0.0190784 -0.0262847 0.0103721 0 0 0 -0.000182359 9.39622e-05 3.48711e-05 0.000105239 0.000407864 -4.59882e-05 0.00795679 -0.000152602 -0.0481356 0.004 300 0 
24 1 1 0.0289657 -0.025538 0.0115697 0 0 0 0.000105273 8.28515e-06 0.000287403 0.000174971 0.00022577 0.000176579 0.0459812 -0.0203133 0.0346294 0.004 300 0 
266 1 1 -0.0293336 -0.0224289 0.0104508 0 0 0 2.6014e-05 6.97848e-05 8.82359e-05 2.6752e-05 -1.99968e-05 -1.72841e-05 -0.00619583 0.0340202 0.0214019 0.004 300 0 
487 1 1 -0.0208111 -0.0214242 0.0102398 0 0 0 5.1831e-05 0.000160762 0.000251654 8.71062e-05 -3.25181e-05 0.00025666 -0.0218133 0.0399908 0.0198897 0.004 300 0 
655 1 1 0.00191918 -0.0211546 0.011576 0 0 0 0.000244391 0.000128693 0.000236765 7.50428e-05 -0.000101631 9.21812e-05 0.0134082 -0.00578462 -0.0217067 0.004 300 0 
243 1 1 0.0112846 -0.0227129 0.010891 0 0 0 8.86345e-05 4.15517e-06 0.000141185 3.22332e-05 0.000227646 8.72235e-05 0.0292964 -0.0156609 -0.0344033 0.004 300 0 
528 1 1 0.0400452 -0.022778 0.0122791 0 0 0 3.7742e-05 5.19236e-05 -7.22335e-05 5.07691e-05 5.65073e-05 0.000287091 0.0218403 -0.0595955 0.0237517 0.004 300 0 
356 1 1 -0.0361829 -0.0175064 0.0110118 0 0 0 -0.000121377 -2.34992e-05 -5.53628e-07 0.00022822 -0.000186815 -3.54424e-05 0.0213792 0.0239059 -0.0105449 0.004 300 0 
739 1 1 -0.0119226 -0.0183468 0.0118979 0 0 0 0.000424008 8.90863e-05 0.000339712 0.000475401 -0.000272505 0.000285034 0.0202661 0.0150496 -0.0498856 0.004 300 0 