ITEM: TIMESTEP
20000
ITEM: NUMBER OF ATOMS
891
ITEM: BOX BOUNDS mm mm mm
-0.05 0.05
-0.05 0.05
0 0.15
ITEM: ATOMS id type type x y z ix iy iz vx vy vz fx fy fz omegax omegay omegaz radius f_Temp[0] f_heatFlux[0] 
199 1 1 -0.00444376 -0.0458158 0.00397434 0 0 0 -3.74891e-06 1.28198e-05 -4.64896e-06 1.52039e-06 5.30365e-06 -1.58177e-05 -0.00290136 0.000495366 0.00332702 0.004 300 0 
873 1 1 -0.0201484 -0.0414789 0.0039016 0 0 0 1.33248e-06 5.38994e-06 2.81005e-06 -6.07629e-06 1.13274e-06 -4.75584e-06 0.000186187 0.000149761 0.000352124 0.004 300 0 
485 1 1 -0.0126796 -0.0442534 0.00397264 0 0 0 -8.50774e-07 -1.72758e-06 -8.14394e-07 2.96343e-06 -6.50666e-06 -4.22991e-06 0.00160267 0.00063803 0.000421157 0.004 300 0 
850 1 1 0.0033564 -0.0441758 0.00394109 0 0 0 -1.12221e-05 4.14715e-07 -2.23517e-06 -1.70707e-05 -3.81084e-05 -2.78567e-05 0.0028832 -0.000782204 -0.0105339 0.004 300 0 
186 1 1 0.0114401 -0.0445988 0.00392824 0 0 0 -1.17793e-05 -6.07482e-07 -7.61117e-06 -1.36606e-05 -1.45206e-05 -8.09026e-06 1.84205e-05 -0.0042153 0.00319478 0.004 300 0 
560 1 1 0.018969 -0.0420006 0.00394677 0 0 0 -7.60251e-06 7.94272e-06 -2.67054e-06 -4.44242e-06 -1.37072e-05 -9.01026e-06 -0.00140932 0.00129112 0.00113997 0.004 300 0 
102 1 1 -0.0147502 -0.0357331 0.0038631 0 0 0 -3.47421e-06 1.76178e-05 1.26291e-05 -5.95983e-06 -3.66371e-06 3.79197e-06 -0.00154386 -0.000784453 0.000718771 0.004 300 0 
88 1 1 -0.00730761 -0.0383837 0.00392723 0 0 0 -8.37444e-06 7.09153e-06 -5.05237e-06 -4.23417e-06 -6.5063e-06 -4.39329e-06 0.000442927 0.00352395 -0.00178688 0.004 300 0 
776 1 1 0.0052039 -0.0354368 0.00395023 0 0 0 -1.84797e-05 3.07434e-05 1.11557e-05 3.19704e-06 -1.67078e-05 -1.74263e-05 -0.00736312 0.00141927 -2.10199e-05 0.004 300 0 
410 1 1 0.0130237 -0.0368131 0.00392572 0 0 0 -1.77688e-05 1.49939e-05 -6.55138e-06 -5.28612e-06 -1.93787e-05 -2.03927e-05 0.000818694 -0.00402152 -0.00182283 0.004 300 0 
282 1 1 0.025876 -0.0381318 0.00388536 0 0 0 -1.05488e-05 1.5089e-05 -1.52566e-05 4.992e-07 -2.4065e-05 -3.14268e-05 -0.00453329 -0.00277801 0.00030688 0.004 300 0 
682 1 1 -0.0302016 -0.0348779 0.00393466 0 0 0 1.20808e-06 2.83869e-06 4.97011e-06 -7.48407e-06 -3.80556e-07 -7.06696e-06 0.000909517 -0.000340016 -0.000873501 0.004 300 0 
251 1 1 -0.0224189 -0.0338476 0.00392337 0 0 0 -1.65981e-06 8.64289e-06 1.20991e-05 -1.09097e-05 1.98131e-06 1.27318e-06 0.000863594 -0.00113632 0.00227038 0.004 300 0 
770 1 1 -0.0020475 -0.0321407 0.00393959 0 0 0 -1.90109e-05 2.79813e-05 -4.30701e-06 1.52835e-05 -1.00943e-05 -6.26933e-06 -0.00402124 -0.00142963 -0.000570108 0.004 300 0 
883 1 1 0.018166 -0.0307534 0.00390039 0 0 0 -1.68226e-05 3.95423e-05 -4.86101e-06 2.16899e-06 -4.11487e-05 -5.00976e-05 -0.00792104 -0.00275538 0.00730729 0.004 300 0 
838 1 1 0.0320336 -0.0331089 0.00396101 0 0 0 -1.08091e-05 5.31533e-06 -7.99018e-06 1.56728e-05 -2.45355e-05 -6.9651e-05 0.000693353 -0.00566911 0.000603124 0.004 300 0 
617 1 1 -0.037252 -0.0271215 0.00391647 0 0 0 -1.62285e-06 3.50291e-06 5.03519e-06 -2.55985e-06 1.53182e-06 -6.28658e-07 -0.00141208 -0.000292197 0.00059683 0.004 300 0 
824 1 1 -0.0292998 -0.0270298 0.00392985 0 0 0 -1.97182e-06 1.27509e-05 1.2423e-05 -9.89325e-06 -9.71809e-07 -2.24461e-06 -0.00134934 -0.0012066 0.00269374 0.004 300 0 
571 1 1 -0.0202615 -0.0262214 0.00393285 0 0 0 -8.83885e-06 2.46731e-05 2.35615e-05 -2.92473e-06 1.71026e-06 3.94929e-06 -0.00190788 -0.00106016 0.00144247 0.004 300 0 
861 1 1 -0.00959298 -0.0297305 0.00389694 0 0 0 -5.98672e-06 2.86186e-05 1.46614e-05 1.38833e-06 -1.01095e-05 5.96612e-06 -0.000898252 0.00167344 4.98934e-05 0.004 300 0 
434 1 1 0.0103456 -0.0293807 0.00393744 0 0 0 -2.04129e-05 3.02789e-05 7.6035e-06 8.56942e-06 -2.83773e-05 -1.58596e-05 0.00255718 -1.42641e-05 -0.00147773 0.004 300 0 
103 1 1 0.0311548 -0.0252347 0.00394389 0 0 0 -9.88501e-06 3.68082e-06 -6.46674e-06 4.81257e-06 -7.02186e-05 -6.34033e-05 -0.00103918 0.00483615 -0.00891683 0.004 300 0 
769 1 1 -0.041344 -0.0202818 0.00398231 0 0 0 -1.0359e-05 -2.46571e-06 -5.63279e-07 -3.7544e-06 1.4133e-06 -1.15555e-05 -0.000109032 -0.000698857 0.00143174 0.004 300 0 
94 1 1 -0.0333714 -0.0202163 0.00394371 0 0 0 -1.51504e-05 3.5579e-06 1.35688e-05 -3.82521e-06 7.91007e-06 -1.39875e-05 0.00263691 -0.00283201 0.00192081 0.004 300 0 
40 1 1 -0.025401 -0.0201463 0.0039176 0 0 0 -1.67995e-05 2.06136e-05 2.24888e-05 -3.40942e-06 -1.93502e-06 -1.71148e-06 -0.00134912 -0.00448993 0.00107357 0.004 300 0 
19 1 1 -0.00865077 -0.0218804 0.00393959 0 0 0 -1.69184e-05 3.76021e-05 1.73871e-05 -1.7455e-05 -1.30366e-05 2.20443e-07 -0.00327242 -0.00297801 0.00433202 0.004 300 0 
442 1 1 -0.000437003 -0.02185 0.00393573 0 0 0 -5.66685e-06 6.28238e-05 1.93606e-05 -1.17573e-06 -2.07915e-05 2.92213e-07 -0.013979 -0.00234966 0.00421405 0.004 300 0 
259 1 1 0.00753194 -0.0220001 0.0039251 0 0 0 -4.21544e-06 5.99708e-05 1.80759e-05 3.26631e-06 -2.61722e-05 -1.71286e-05 -0.010031 0.000596584 -0.00595366 0.004 300 0 
512 1 1 0.0153884 -0.0232355 0.00397847 0 0 0 -1.26734e-05 3.51288e-05 2.25638e-05 2.34472e-05 -5.87881e-05 -5.01727e-05 -0.00284513 -0.00244258 0.00211935 0.004 300 0 
470 1 1 0.0232617 -0.024359 0.00390843 0 0 0 3.46432e-06 3.99109e-05 2.27255e-05 7.12288e-06 -7.66216e-05 -9.25089e-05 -0.0018469 0.00361818 0.0031019 0.004 300 0 
451 1 1 0.0390292 -0.0244874 0.00392054 0 0 0 -9.93938e-06 -4.26525e-05 -3.61533e-05 3.8257e-05 -5.05912e-05 -2.11127e-05 0.0020263 -0.00479893 0.0112655 0.004 300 0 
531 1 1 -0.0164596 -0.0192004 0.00396122 0 0 0 -2.7083e-05 4.08071e-05 8.57057e-06 -5.48549e-06 1.30787e-05 2.61669e-05 -0.00922958 -0.0064001 0.00493441 0.004 300 0 
229 1 1 0.0202063 -0.0169136 0.00386891 0 0 0 -3.32707e-05 1.57372e-05 6.45809e-05 -2.13217e-05 -7.60178e-05 -8.2431e-05 0.00312761 -0.00318838 -0.00274036 0.004 300 0 
734 1 1 0.0280527 -0.0179421 0.00394416 0 0 0 -3.86533e-05 4.2731e-06 3.51771e-05 1.41641e-06 -6.82138e-05 -6.95488e-05 0.00183789 -0.000168425 0.00119999 0.004 300 0 
635 1 1 0.042598 -0.0174493 0.003922 0 0 0 -3.42051e-05 -3.07858e-05 6.06809e-07 4.48525e-05 -8.83983e-05 -6.34206e-05 0.00755454 -0.00865591 -0.00230553 0.004 300 0 
87 1 1 -0.0448223 -0.0104639 0.00391422 0 0 0 3.41581e-06 1.60571e-06 1.21994e-05 -1.4243e-05 -1.32974e-05 -1.62703e-05 -0.00114886 0.00146305 0.00117999 0.004 300 0 
406 1 1 -0.0373951 -0.013391 0.00396018 0 0 0 -2.45954e-05 -1.83116e-06 1.6716e-05 -2.73381e-05 4.44195e-06 -2.67596e-05 0.00195644 -0.00769591 0.000220988 0.004 300 0 
224 1 1 -0.0230581 -0.0126019 0.00387958 0 0 0 -1.56579e-05 1.93616e-05 2.50877e-05 8.05816e-06 -1.87443e-06 7.02298e-06 -0.00315025 -0.00490365 -0.00206464 0.004 300 0 
751 1 1 -0.0102997 -0.0141546 0.00396938 0 0 0 -2.11138e-05 4.43234e-05 1.81528e-05 -3.10315e-06 -9.69061e-06 3.70733e-06 -0.000909687 -0.001361 -0.00279908 0.004 300 0 
622 1 1 -0.00273391 -0.0117409 0.00388511 0 0 0 -2.47361e-05 5.39857e-05 3.1196e-05 1.99521e-06 -1.86748e-05 -2.87065e-05 -0.00644356 -0.00716335 0.00433385 0.004 300 0 
128 1 1 0.00951083 -0.0106851 0.00388442 0 0 0 -1.22287e-05 4.87007e-05 6.15455e-05 -1.43381e-05 -4.51029e-05 -6.55137e-05 -0.0131165 -0.0023765 -0.00350759 0.004 300 0 
68 1 1 0.0262816 -0.010211 0.00395439 0 0 0 -4.86698e-05 -2.55973e-05 6.43793e-05 -7.60762e-05 -6.87914e-05 -0.00012454 0.00515735 0.00295448 0.00365259 0.004 300 0 
791 1 1 0.0340943 -0.0118578 0.00392821 0 0 0 -9.64319e-05 -3.3452e-05 2.17185e-05 -2.94896e-05 6.49335e-05 -0.000265015 0.00151108 -0.0217796 -0.0091914 0.004 300 0 
354 1 1 -0.0380749 -0.00550396 0.00392043 0 0 0 -2.14543e-05 -7.13828e-07 1.35387e-05 -1.58183e-05 -1.01674e-05 -7.80384e-06 0.000828046 -0.00220426 -0.000349878 0.004 300 0 
725 1 1 -0.0304901 -0.0080053 0.00392519 0 0 0 -3.75989e-05 3.73748e-06 1.89472e-05 -1.62147e-05 6.11746e-07 -4.48318e-06 0.00020339 -0.00783651 -0.00169027 0.004 300 0 
353 1 1 -0.0161288 -0.0087981 0.00391137 0 0 0 -1.3992e-05 3.38023e-05 2.55177e-05 1.2168e-05 -9.37061e-07 1.39479e-05 -0.00292054 0.000293376 0.00460702 0.004 300 0 
391 1 1 -0.0085767 -0.00639747 0.00391346 0 0 0 -1.13648e-05 4.40852e-05 2.42534e-05 3.27431e-05 -1.48831e-05 1.78041e-06 -0.000798926 -0.000816547 -0.00291271 0.004 300 0 
683 1 1 0.0173536 -0.00945639 0.00391 0 0 0 -1.17749e-05 2.07389e-05 5.21672e-05 -5.5234e-05 -4.09893e-05 -7.30758e-05 -0.00562386 -0.00488762 -0.00266289 0.004 300 0 
690 1 1 0.0385535 -0.00520265 0.00390043 0 0 0 -2.63325e-05 -7.4706e-05 -6.52991e-05 -1.02025e-05 0.000196841 -0.000425955 0.00733998 -0.00497851 -0.00911835 0.004 300 0 
10 1 1 0.0449636 -0.00990889 0.00397391 0 0 0 -4.51962e-06 -3.52206e-05 3.49819e-06 -3.7781e-05 -9.88553e-06 -3.93582e-05 -0.0036218 -0.000959957 0.00246873 0.004 300 0 
402 1 1 -0.046017 -0.00264173 0.00392182 0 0 0 -7.27976e-06 8.16431e-07 9.00391e-06 2.38789e-06 -8.4219e-06 6.05645e-06 -0.000413708 -0.00231001 0.000712543 0.004 300 0 
761 1 1 -0.0294745 -0.00016834 0.00392561 0 0 0 -2.33979e-05 9.14819e-06 2.24096e-05 9.17802e-06 -2.5931e-06 -5.93706e-07 -0.00216981 -0.00338263 -0.000190806 0.004 300 0 
293 1 1 -0.0229324 -0.00466873 0.00395946 0 0 0 -1.56126e-05 1.75451e-05 2.33842e-05 1.68227e-05 -1.66861e-06 9.8704e-06 0.0016345 -0.00113247 0.00191637 0.004 300 0 
384 1 1 -0.0146861 -0.000901181 0.0039815 0 0 0 -0.000883549 0.000686052 6.25514e-09 -1.33611e-13 7.30685e-12 2.89524e-07 -0.171911 -0.221399 0.233621 0.004 300 0 
378 1 1 0.00130608 -0.00490404 0.00392896 0 0 0 -1.35243e-05 3.63136e-05 2.14529e-05 3.80097e-05 -1.52225e-05 -2.6031e-05 -0.00611904 -0.00278102 -0.00948923 0.004 300 0 
390 1 1 0.0103708 -0.00276533 0.00396872 0 0 0 -4.81334e-06 4.05046e-05 1.99675e-05 -1.41069e-05 -1.4055e-05 -4.29288e-05 -0.00364228 0.00217057 -0.00319598 0.004 300 0 
411 1 1 0.0223607 -0.00329301 0.00397615 0 0 0 1.21715e-05 -3.63372e-06 2.78132e-05 -6.6066e-05 -1.90971e-05 -0.000140161 -0.00819595 -0.00357458 -0.0125877 0.004 300 0 
342 1 1 0.0307349 -0.00361682 0.00397491 0 0 0 -3.34156e-05 -3.47799e-05 5.07034e-06 -4.65634e-05 4.69239e-05 -0.000135019 -0.00145902 -0.000144609 -0.00493191 0.004 300 0 
262 1 1 0.0460221 -0.00206511 0.00395822 0 0 0 5.95227e-06 -3.39705e-05 -2.03326e-05 1.35299e-05 3.80628e-05 -5.3179e-05 -0.000222123 0.00118919 0.00183386 0.004 300 0 
261 1 1 -0.0398215 0.002246 0.00393476 0 0 0 -1.61182e-05 -1.50915e-07 1.12954e-05 1.05171e-05 -1.66571e-05 1.9417e-06 -0.0006605 -0.00321183 -0.00109499 0.004 300 0 
666 1 1 -0.00454689 0.000451452 0.00395594 0 0 0 -7.46805e-06 4.86574e-05 3.62109e-05 4.89682e-05 -1.16969e-05 -2.30668e-07 -0.000387952 0.0025499 0.00392579 0.004 300 0 
815 1 1 0.00434362 0.00243556 0.00392705 0 0 0 -4.16703e-05 2.20228e-05 5.04571e-05 2.31939e-05 1.10802e-05 -3.17623e-05 0.00584162 -0.00806699 0.016991 0.004 300 0 
306 1 1 0.01637 0.00247663 0.00395793 0 0 0 -6.22915e-06 4.65836e-06 -1.67486e-06 -3.47837e-05 -2.62996e-06 -9.34853e-05 -0.00440088 -0.0115229 -0.0123096 0.004 300 0 
178 1 1 0.0241043 0.00444167 0.00386098 0 0 0 2.96165e-05 -7.67955e-06 8.90486e-07 -2.91401e-05 3.68793e-05 -0.00014415 0.00159941 0.0127718 0.0105073 0.004 300 0 
862 1 1 0.0320657 0.00423341 0.00393095 0 0 0 1.20414e-05 -6.89369e-06 -4.01492e-05 -3.57383e-05 0.000103347 -0.000183311 -0.00465268 -0.00382556 -0.0118169 0.004 300 0 
661 1 1 0.0398756 0.00291453 0.00394671 0 0 0 9.84678e-07 -3.10308e-05 -3.18593e-05 2.78178e-05 0.000121288 -0.000116072 -0.00668322 0.000368103 -0.000332966 0.004 300 0 
677 1 1 -0.0453782 0.00788539 0.00393641 0 0 0 -4.88014e-06 -3.86934e-07 4.342e-06 7.7911e-06 -5.06722e-06 1.41175e-06 0.000237628 -0.000586519 0.000280321 0.004 300 0 
12 1 1 -0.0333161 0.0067196 0.00393695 0 0 0 -2.11344e-05 3.50155e-06 1.30144e-05 1.34979e-05 -1.50891e-05 -5.89924e-06 -0.000555526 -0.000986114 0.00111017 0.004 300 0 
420 1 1 -0.0254 0.00664837 0.00392683 0 0 0 -2.89341e-05 1.2712e-05 2.40344e-05 2.20754e-05 -3.10276e-06 1.33829e-05 -0.00242264 -0.00567821 0.000823982 0.004 300 0 
654 1 1 -0.0175135 0.00720949 0.00387205 0 0 0 -3.21857e-05 3.83059e-05 4.86378e-05 3.67704e-05 -1.14522e-05 1.96859e-05 -0.00811877 -0.00525907 0.00511958 0.004 300 0 
145 1 1 -0.0045442 0.00836539 0.003863 0 0 0 -3.76384e-05 5.69577e-05 5.03847e-05 4.33613e-05 -2.3606e-05 5.64539e-06 -0.00733495 -0.0040743 0.0018871 0.004 300 0 
624 1 1 0.0451448 0.00890642 0.00390659 0 0 0 2.73017e-06 -2.95096e-05 -3.04372e-05 4.28811e-05 7.3477e-05 -0.000112558 0.0153308 0.00192875 -9.70237e-06 0.004 300 0 
613 1 1 -0.0372991 0.0135339 0.00384342 0 0 0 -1.65524e-05 -1.75486e-06 6.90281e-06 2.37504e-05 -1.33678e-05 1.32105e-05 0.000209571 -0.00277696 -0.000244035 0.004 300 0 
265 1 1 -0.0293062 0.0135429 0.00396369 0 0 0 -2.88553e-05 9.60513e-06 1.4536e-06 1.44299e-05 -9.42933e-06 1.0971e-05 -0.00175048 0.000450097 0.00157302 0.004 300 0 
273 1 1 -0.0213695 0.0141274 0.00392935 0 0 0 -4.64798e-05 1.57364e-05 1.15637e-05 2.75399e-05 -1.25919e-05 1.86614e-05 -0.00246099 -0.00827334 -0.00134586 0.004 300 0 
492 1 1 -0.0114501 0.0123713 0.0039807 0 0 0 -4.5422e-05 5.66543e-05 3.50391e-05 5.37332e-05 -3.35094e-05 3.11621e-05 -0.00707144 -0.00646781 -0.000590479 0.004 300 0 
234 1 1 0.00585276 0.010393 0.00392882 0 0 0 -2.90833e-05 1.76052e-05 3.63942e-05 2.87057e-05 2.52643e-05 -1.85624e-05 -0.00319902 -0.00370867 0.00538036 0.004 300 0 
160 1 1 0.0142842 0.0106356 0.00390946 0 0 0 -2.95477e-05 2.3797e-06 2.60492e-05 1.03605e-05 1.58498e-05 -1.89594e-05 0.00291014 -0.00499795 -0.00117616 0.004 300 0 
484 1 1 0.0220892 0.0120738 0.00390113 0 0 0 -1.94088e-05 8.9238e-06 1.55874e-05 3.74443e-07 4.33831e-05 -6.21853e-05 -0.00578095 -0.00276189 0.00235002 0.004 300 0 
743 1 1 0.0300184 0.0126215 0.00398127 0 0 0 -8.84688e-06 3.01342e-05 9.87385e-06 4.24746e-05 -2.40714e-05 -4.0032e-05 -0.0107287 0.00350475 0.000313931 0.004 300 0 
514 1 1 0.0379537 0.0130186 0.00386894 0 0 0 5.99966e-06 6.30476e-06 -4.76139e-05 8.86937e-05 0.000170598 -0.000166665 0.00355118 0.00635775 5.31668e-05 0.004 300 0 
530 1 1 -0.0159003 0.0198649 0.00392791 0 0 0 -3.84881e-05 7.29626e-06 4.30237e-05 3.58901e-05 -3.4182e-05 1.39674e-05 -0.00303324 -0.0101033 -0.00284654 0.004 300 0 
227 1 1 -0.00736513 0.0192084 0.00396587 0 0 0 -3.42416e-05 5.24265e-05 3.64315e-05 3.00284e-05 -8.35696e-06 8.74299e-06 -0.00438603 -0.00558368 -0.00061304 0.004 300 0 
392 1 1 -0.000498727 0.0151514 0.00394439 0 0 0 -2.1859e-05 3.48534e-05 4.05022e-05 4.31338e-05 -1.30035e-05 -6.98075e-06 -0.00212588 9.92111e-06 -0.00972993 0.004 300 0 
493 1 1 0.00985834 0.0172532 0.0039464 0 0 0 -1.78643e-05 1.77727e-05 3.91555e-05 3.16489e-05 1.04906e-05 -6.61139e-06 0.000577858 0.000453803 -0.00317675 0.004 300 0 
34 1 1 0.0176356 0.0187853 0.00394093 0 0 0 -1.80243e-05 1.9658e-05 2.28694e-05 1.86559e-05 9.02583e-06 -2.02549e-05 -0.00524737 -0.000518167 0.000633551 0.004 300 0 
206 1 1 0.0255397 0.0192352 0.0039699 0 0 0 -1.67055e-05 8.14698e-06 5.32607e-06 2.5621e-05 7.45973e-06 -2.54408e-05 0.0016311 0.00233161 -0.00128668 0.004 300 0 
104 1 1 0.0334175 0.0199346 0.00389645 0 0 0 -1.69221e-05 -1.14566e-05 -8.66334e-06 7.48923e-06 4.69689e-05 -5.48137e-05 0.00258959 -0.00158515 -0.00422956 0.004 300 0 
809 1 1 -0.0412059 0.0204949 0.00395496 0 0 0 -9.74289e-06 -2.32401e-06 -1.88647e-06 2.03789e-05 1.00254e-06 1.5568e-05 -0.000206735 -0.000997766 -0.000457105 0.004 300 0 
773 1 1 -0.0331524 0.0204531 0.0039352 0 0 0 -2.27805e-05 3.36106e-06 6.01971e-06 2.19799e-05 -1.4435e-06 4.63634e-06 0.000840237 -0.00325714 1.75972e-07 0.004 300 0 
792 1 1 0.00347669 0.0219736 0.00392097 0 0 0 -8.70918e-06 1.73767e-05 3.41839e-05 3.70205e-05 -1.01227e-05 5.27469e-06 -0.00456613 -0.00167408 0.00522869 0.004 300 0 
718 1 1 0.0413199 0.0203659 0.00392986 0 0 0 -3.72741e-06 -1.96326e-05 -2.29534e-05 2.54642e-05 5.65956e-05 -6.39198e-05 0.0114049 0.0025413 0.00339952 0.004 300 0 
101 1 1 -0.0371146 0.0272995 0.00390401 0 0 0 -1.08763e-05 -5.96528e-06 8.14767e-06 1.3519e-05 2.14706e-06 6.38086e-06 0.00268241 -0.00330636 -0.00120726 0.004 300 0 
246 1 1 -0.0290567 0.0272807 0.00398268 0 0 0 -7.73736e-06 4.74587e-06 1.05527e-05 2.01817e-05 -1.80588e-05 2.07116e-05 -0.00177219 -0.00226417 -0.00449009 0.004 300 0 
331 1 1 -0.0212282 0.0257799 0.00390013 0 0 0 -1.15131e-05 2.99087e-06 2.57249e-05 5.17337e-05 -1.46204e-05 2.68668e-05 0.00141103 -0.00192489 0.000576133 0.004 300 0 
846 1 1 -0.0134709 0.0274169 0.00397475 0 0 0 1.29327e-05 -2.15777e-05 4.53899e-05 5.94007e-05 -4.76266e-05 1.73284e-05 0.00370584 0.0019323 -0.0112845 0.004 300 0 
348 1 1 -0.00329926 0.0260612 0.00393368 0 0 0 3.08466e-06 1.94129e-05 3.50322e-05 4.05851e-05 -9.21139e-06 -1.67765e-08 -0.00415904 0.00392232 -0.0134742 0.004 300 0 
786 1 1 0.00840346 0.0281551 0.0038968 0 0 0 1.54734e-07 1.43425e-05 3.36446e-05 4.30771e-05 -8.24203e-06 -1.08078e-05 -0.000348063 -0.00143571 -0.00626056 0.004 300 0 
316 1 1 0.0162832 0.0272928 0.00390629 0 0 0 -9.20845e-06 5.75211e-06 2.49808e-05 4.73161e-05 -7.89413e-07 -2.9849e-05 -0.00578723 0.000423997 0.00031729 0.004 300 0 
495 1 1 0.0288861 0.0264617 0.00396715 0 0 0 -6.66366e-06 -3.38482e-06 9.00482e-06 9.17342e-06 1.03891e-06 -2.04004e-05 0.00182088 0.00104312 0.000209524 0.004 300 0 
863 1 1 0.0367263 0.0277633 0.00392936 0 0 0 -3.29787e-06 -7.98989e-06 -1.16616e-06 1.0572e-05 2.40157e-05 -2.07135e-05 0.00280871 0.000529457 -0.000517624 0.004 300 0 
511 1 1 -0.00761844 0.0327132 0.00388547 0 0 0 2.3544e-05 -6.87048e-06 3.76109e-05 3.21709e-05 -2.07388e-05 4.96057e-06 0.001564 0.0062933 0.0122825 0.004 300 0 
722 1 1 0.00164026 0.0322875 0.00396633 0 0 0 6.03825e-06 1.50852e-06 2.85757e-05 3.53549e-05 -2.58427e-06 -1.16691e-05 0.00360289 -0.00239948 0.00862948 0.004 300 0 
2 1 1 0.0229311 0.031696 0.00396243 0 0 0 -1.52708e-05 -2.85012e-06 1.66052e-05 2.43885e-05 -4.78337e-06 -1.59463e-05 0.000644811 -0.00287085 -0.000231295 0.004 300 0 
254 1 1 0.0305965 0.0343199 0.0039815 0 0 0 -0.000818632 0.000870518 3.38923e-08 -3.60035e-12 3.38506e-12 4.8646e-08 -0.218134 -0.205132 -0.0703935 0.004 300 0 
257 1 1 -0.0296322 0.0352231 0.00395612 0 0 0 7.8229e-06 3.25999e-06 2.57318e-06 6.83435e-06 -1.04839e-05 7.17806e-06 -4.05027e-05 0.000797226 0.00291201 0.004 300 0 
582 1 1 -0.0157656 0.0356205 0.00393201 0 0 0 3.76971e-05 -2.21554e-05 1.22e-05 3.17975e-05 2.13777e-05 1.58121e-05 0.00332073 0.00989104 -0.00352431 0.004 300 0 
255 1 1 -0.00267128 0.038932 0.00391145 0 0 0 -5.13012e-06 -4.72064e-06 2.7888e-05 9.37949e-07 -1.73179e-05 -7.23094e-06 0.000205442 -0.000620539 -0.00331092 0.004 300 0 
887 1 1 0.0081208 0.0373183 0.00392887 0 0 0 -1.01988e-05 -3.22928e-07 2.17496e-05 3.07394e-05 5.11689e-06 -5.5878e-06 -0.00112622 0.000661247 -0.000890428 0.004 300 0 
719 1 1 0.0157852 0.0351951 0.00398363 0 0 0 -9.80262e-06 -2.38345e-07 7.44209e-06 1.82183e-05 -2.54012e-06 -8.30853e-06 0.00105279 -0.000135121 -0.000783214 0.004 300 0 
21 1 1 0.0234243 0.0396338 0.00391496 0 0 0 -4.51101e-06 -1.15706e-06 7.8889e-06 9.73499e-06 2.0959e-06 -9.47044e-07 -0.000957529 -0.000431181 -0.00132777 0.004 300 0 
325 1 1 -0.0222388 0.0402984 0.00393949 0 0 0 2.46041e-05 -3.27906e-06 1.53536e-05 1.33406e-05 8.66862e-06 7.20761e-06 -0.00257774 0.00246264 0.00344854 0.004 300 0 
595 1 1 -0.014931 0.0435393 0.00398254 0 0 0 2.21577e-05 -5.16137e-06 4.68615e-06 1.5078e-05 7.68473e-06 -3.47435e-06 -0.00117697 0.00321575 0.00476745 0.004 300 0 
568 1 1 0.0162912 0.0430934 0.00392628 0 0 0 -1.113e-06 -7.18408e-07 8.07098e-06 1.0635e-05 -7.83858e-07 -3.20275e-08 -0.000408178 0.00109237 0.00026164 0.004 300 0 
387 1 1 -0.00719692 0.045487 0.00389931 0 0 0 1.69122e-06 -2.39203e-06 9.58123e-06 7.60074e-08 -7.48559e-06 1.63299e-06 -0.000939903 -0.00124043 -0.000512607 0.004 300 0 
852 1 1 0.000758875 0.0460615 0.00397616 0 0 0 2.50257e-06 -1.45347e-06 1.13539e-05 7.96933e-06 -1.00937e-05 3.84145e-06 -0.00264446 0.000478578 0.0010231 0.004 300 0 
157 1 1 0.00865316 0.0452493 0.00389824 0 0 0 -4.55571e-08 -3.64125e-06 1.3813e-05 1.3511e-05 1.21876e-06 -9.92936e-06 -0.00022023 0.000520985 -0.000886789 0.004 300 0 
400 1 1 -0.024752 -0.0387964 0.0097442 0 0 0 4.92223e-06 6.80734e-06 6.63302e-06 -5.84919e-06 -1.91751e-05 -1.29972e-05 0.0010612 -0.000216003 -0.00274804 0.004 300 0 
606 1 1 -0.000653951 -0.0387266 0.00813881 0 0 0 -4.4664e-05 2.11261e-05 1.2574e-06 -7.75492e-06 -3.8986e-05 -2.97301e-05 0.000501873 -0.0143825 0.00765984 0.004 300 0 
724 1 1 -0.0339143 -0.0311598 0.00984802 0 0 0 6.81623e-06 1.01831e-05 7.22644e-06 2.57322e-06 -1.39712e-05 -4.92649e-06 -0.000825438 0.00174508 -0.000187538 0.004 300 0 
183 1 1 0.0251948 -0.0311657 0.00751551 0 0 0 2.12196e-05 4.69903e-05 -3.10413e-05 -4.14233e-06 -5.3253e-05 -0.000140035 0.00129476 0.00962962 -0.00865624 0.004 300 0 
544 1 1 -0.0140218 -0.0253028 0.00874974 0 0 0 -8.92926e-06 5.17263e-05 3.44397e-05 -2.03929e-05 -9.41844e-06 -2.8976e-06 -0.00273376 -0.00180632 -0.000501823 0.004 300 0 
29 1 1 -0.00450639 -0.0263794 0.009007 0 0 0 -2.42652e-05 5.83677e-05 4.14227e-05 -2.78808e-05 -1.83871e-05 1.42914e-05 0.00195411 -0.00828508 0.00454564 0.004 300 0 
248 1 1 0.00349904 -0.0278425 0.00763297 0 0 0 -4.52671e-05 3.9983e-05 1.12619e-05 1.67115e-05 -4.39953e-05 -4.17107e-06 0.00275452 -0.00815636 -0.00217075 0.004 300 0 
79 1 1 0.0358374 -0.0289485 0.00959703 0 0 0 2.08587e-05 -1.65483e-05 -1.18974e-05 -4.26607e-06 -7.45408e-05 9.26659e-06 -0.00759938 0.00865391 -0.0100355 0.004 300 0 
291 1 1 -0.0045888 -0.0173975 0.00909508 0 0 0 -2.2539e-05 6.9388e-05 7.02076e-06 -2.24313e-05 -8.81891e-06 -3.7244e-05 0.00238004 0.0104515 0.00200615 0.004 300 0 
891 1 1 0.00373487 -0.015528 0.00632483 0 0 0 -8.05695e-06 7.65415e-05 4.78045e-05 7.48035e-06 -3.21112e-05 -3.36093e-05 0.0150115 -0.000542114 0.00280236 0.004 300 0 
870 1 1 0.0138327 -0.0156362 0.00831 0 0 0 -3.89676e-05 3.33029e-05 0.000131977 -7.54529e-05 -0.000125534 -0.000126003 0.0102334 0.00197083 -0.0101087 0.004 300 0 
777 1 1 0.0349677 -0.0187807 0.00771466 0 0 0 1.44355e-05 -9.21243e-05 -0.000270594 0.00013707 -4.23718e-05 -0.000374444 0.0865736 0.0759131 0.0186825 0.004 300 0 
837 1 1 -0.029449 -0.0146727 0.00803323 0 0 0 -2.8703e-05 1.49607e-05 2.89412e-05 -2.76617e-05 -9.01787e-06 -1.64578e-05 -0.00165455 0.00303141 0.0048741 0.004 300 0 
445 1 1 -0.0181359 -0.0138495 0.00995265 0 0 0 -1.93976e-05 5.14233e-05 6.60723e-05 -2.04862e-05 -2.33673e-05 1.24407e-05 -0.00510431 -0.000340736 0.00454279 0.004 300 0 
783 1 1 0.00485903 -0.00860664 0.00993733 0 0 0 -5.41319e-05 0.000103429 6.98998e-05 -4.71617e-06 -4.15404e-05 -6.49752e-05 -0.0103818 -0.0050229 0.00810806 0.004 300 0 
615 1 1 -0.0350999 -0.000758709 0.00955181 0 0 0 -4.04575e-05 6.84314e-07 3.1974e-05 1.7872e-05 -1.48787e-05 -9.69989e-06 0.00114177 -0.00219183 0.00510207 0.004 300 0 
476 1 1 -0.0459522 0.00262139 0.00988978 0 0 0 -1.36516e-05 -2.99327e-06 1.71727e-05 6.96568e-06 -1.41788e-06 -5.72875e-06 -0.000129591 -0.00416418 -0.00104986 0.004 300 0 
16 1 1 -0.0210457 0.00169438 0.00830918 0 0 0 -4.30063e-05 3.63379e-05 6.02472e-05 2.89692e-05 -2.76633e-06 1.76058e-05 0.000734292 -0.00295815 0.00460625 0.004 300 0 
303 1 1 0.0459489 0.00350409 0.00962646 0 0 0 2.84392e-05 -1.38481e-05 -0.000134024 4.10711e-05 0.000160852 -0.000191241 -0.0154435 0.00256924 0.00958407 0.004 300 0 
523 1 1 -0.0389798 0.0080308 0.00932861 0 0 0 -2.77675e-05 -7.3786e-06 1.79968e-05 2.52493e-05 -2.01312e-05 -1.03437e-05 0.00153688 -0.000788432 4.67685e-05 0.004 300 0 
704 1 1 -0.0107982 0.00519229 0.00743841 0 0 0 -5.02533e-05 7.43524e-05 8.31254e-05 6.04568e-05 -4.35331e-05 3.23003e-06 0.00200553 7.47039e-05 -0.000309851 0.004 300 0 
454 1 1 0.00101162 0.00715934 0.00933938 0 0 0 -6.76716e-05 7.86756e-05 8.52252e-05 8.91666e-05 -9.56674e-06 -2.13283e-06 -0.0141449 -0.000386281 -0.02008 0.004 300 0 
31 1 1 0.0102164 0.00547589 0.00832571 0 0 0 -6.62554e-05 5.89482e-05 6.09401e-05 -4.93334e-05 1.04683e-05 -6.21159e-05 -0.0112581 0.00967605 -0.0150937 0.004 300 0 
135 1 1 0.0188886 0.00749167 0.00960753 0 0 0 -3.12239e-05 -2.1227e-05 1.27498e-06 4.343e-05 4.20072e-05 -0.000148563 0.0129086 0.00192562 0.011296 0.004 300 0 
712 1 1 0.028114 0.00743253 0.00998833 0 0 0 -5.45242e-06 8.40734e-05 -0.000127851 1.48711e-05 0.000341572 -0.000364229 -0.0089619 0.0118811 0.0309773 0.004 300 0 
210 1 1 0.0394934 0.00814598 0.00989845 0 0 0 -5.59817e-05 4.7461e-05 -0.000146629 -0.000100902 0.00033205 -0.000395085 3.13777e-05 -0.0338193 -0.0169933 0.004 300 0 
651 1 1 -0.0437988 0.0143398 0.00823564 0 0 0 -1.25924e-05 -2.08396e-06 2.85292e-06 2.20604e-05 -9.34561e-06 1.55766e-05 -0.0016556 0.000212112 0.000502309 0.004 300 0 
621 1 1 0.0437182 0.0147845 0.00900757 0 0 0 -1.63528e-06 2.5828e-05 -4.98907e-05 6.31185e-05 0.000141268 -0.000109784 -0.0204028 -0.0081686 0.00177114 0.004 300 0 
726 1 1 -0.0257658 0.0199972 0.00692819 0 0 0 -3.25562e-05 3.22679e-06 1.40907e-05 4.46145e-05 -1.46218e-05 2.77234e-05 0.00756569 0.00127002 -0.00267243 0.004 300 0 
230 1 1 -0.00847486 0.024595 0.0097376 0 0 0 -5.36293e-06 2.7196e-05 0.000105562 7.96986e-05 3.77536e-06 2.19958e-05 0.0164907 0.00661762 0.00320745 0.004 300 0 
320 1 1 -0.00171284 0.0204051 0.00979369 0 0 0 -2.2338e-06 5.23702e-05 7.76464e-05 6.838e-05 -4.2218e-05 -1.43313e-06 0.00520277 -0.000962168 -0.000217719 0.004 300 0 
7 1 1 0.012921 0.0224303 0.00918507 0 0 0 -1.03798e-05 1.95904e-05 5.96032e-05 7.05547e-05 1.37223e-05 -1.75708e-05 0.00547401 0.00376744 -0.000367823 0.004 300 0 
83 1 1 0.0214164 0.0239651 0.00888417 0 0 0 -1.62298e-05 8.2606e-06 3.42719e-05 2.03915e-05 6.32844e-05 -2.90717e-05 -0.00106183 0.000698528 -0.00572426 0.004 300 0 
747 1 1 -0.0337321 0.0313835 0.0097407 0 0 0 -1.27909e-05 -7.22986e-06 1.37633e-05 2.38976e-05 5.64167e-06 7.37278e-06 -0.0053468 -0.000645559 -0.00451466 0.004 300 0 
51 1 1 -0.0226193 0.0329654 0.00703445 0 0 0 8.46383e-06 -2.61209e-06 2.83245e-05 4.19356e-05 6.54202e-06 2.08793e-05 0.0011145 -0.00785217 -0.00721756 0.004 300 0 
116 1 1 -0.00940742 0.0391204 0.00809809 0 0 0 4.11644e-06 -8.15128e-06 5.04937e-05 1.41442e-05 -3.01312e-05 1.38396e-05 -0.00555474 0.00409601 0.00249425 0.004 300 0 
205 1 1 -0.00056047 -0.0460776 0.0110171 0 0 0 -1.80335e-05 1.06665e-05 7.61166e-06 -2.28236e-05 -3.38527e-05 -4.22352e-05 0.000300273 0.00927709 0.000211897 0.004 300 0 
836 1 1 0.00737987 -0.0454688 0.0106608 0 0 0 -2.72864e-05 -5.30259e-06 -2.25641e-05 -3.66364e-05 -3.68785e-05 -2.37044e-05 -0.00653873 0.000322177 0.00558324 0.004 300 0 
486 1 1 -0.0156918 -0.0402431 0.0103352 0 0 0 -1.9178e-05 1.88181e-05 7.41592e-06 7.53763e-06 -2.57139e-05 -2.04794e-05 0.00133215 -0.00625019 0.00360527 0.004 300 0 
311 1 1 -0.00836817 -0.0439884 0.0106791 0 0 0 -2.67444e-06 2.31587e-06 -6.30227e-06 -9.22978e-07 -2.35182e-05 -1.8697e-05 0.000989129 -0.00015902 0.013022 0.004 300 0 
447 1 1 0.018055 -0.0423881 0.0118324 0 0 0 -3.26912e-05 1.12276e-05 -1.65973e-05 -4.323e-07 -9.36177e-06 -1.83376e-05 -0.000309613 -0.00818134 0.00258021 0.004 300 0 
538 1 1 -0.0295743 -0.0353509 0.0149849 0 0 0 5.84605e-06 1.03743e-05 9.35974e-06 6.09266e-06 -3.75684e-05 -6.47667e-06 0.00093968 -0.00144124 0.000784723 0.004 300 0 
279 1 1 0.011155 -0.0385416 0.0114151 0 0 0 -8.49385e-05 1.46333e-06 -6.27853e-05 -3.30595e-05 -3.43841e-05 -3.83665e-05 0.00166165 -0.00888919 0.00416281 0.004 300 0 
110 1 1 0.0250464 -0.0386627 0.0117244 0 0 0 2.49076e-07 1.41223e-05 -3.20754e-05 5.85616e-06 -3.50231e-05 -5.58347e-05 0.000527962 0.00761719 0.000118626 0.004 300 0 
188 1 1 -0.0179041 -0.0321008 0.0101565 0 0 0 -1.03242e-05 4.74468e-05 2.28159e-05 -1.86205e-05 -1.83879e-05 7.8087e-06 -0.00619681 0.0010509 0.00421637 0.004 300 0 
810 1 1 -0.0102602 -0.034451 0.0102036 0 0 0 -2.37122e-05 3.94375e-05 2.5455e-05 -2.33569e-05 -2.24618e-05 8.01643e-06 -0.00362941 -0.00418542 -0.000382349 0.004 300 0 
412 1 1 -0.00316759 -0.0328807 0.0133524 0 0 0 -5.43624e-05 4.02526e-05 4.81652e-05 -5.05459e-05 -3.97812e-05 -5.68534e-06 0.000983053 -0.00348369 -0.00159551 0.004 300 0 
545 1 1 0.00452048 -0.0343087 0.0121939 0 0 0 -8.59419e-05 1.95545e-05 -1.29781e-05 -3.63937e-05 -6.16005e-05 -4.70476e-05 0.00488429 0.015352 -0.0033053 0.004 300 0 
100 1 1 0.0115064 -0.0305929 0.0117076 0 0 0 -8.54136e-05 1.23529e-05 -2.3044e-05 -4.0654e-05 -5.8502e-05 -6.77757e-05 0.00925625 -0.00924103 -0.000973225 0.004 300 0 
556 1 1 0.0183666 -0.0344773 0.0109249 0 0 0 -3.65362e-05 2.62103e-05 -9.96388e-06 -1.9561e-05 -2.53776e-05 -1.75141e-05 0.00382506 -0.0013844 0.00208135 0.004 300 0 
32 1 1 0.0311347 -0.0339586 0.0134831 0 0 0 7.11199e-06 -3.75611e-06 -1.7913e-05 -3.30635e-05 -0.000110099 -9.16612e-05 0.0106272 -0.00979253 -0.000542906 0.004 300 0 
5 1 1 -0.038675 -0.0250103 0.0114406 0 0 0 -1.11156e-06 9.68935e-06 2.09234e-05 -1.12505e-05 -7.83995e-06 -1.47407e-05 0.0031495 -0.000402371 0.00136066 0.004 300 0 
415 1 1 -0.0253878 -0.0293584 0.0104086 0 0 0 -1.3965e-06 4.81458e-05 2.83954e-05 -3.39141e-05 -3.09671e-05 1.25405e-05 -0.00970039 0.00325471 -0.00802533 0.004 300 0 
446 1 1 -0.00968818 -0.0280477 0.014834 0 0 0 -3.02369e-05 4.40127e-05 4.11818e-05 -5.4602e-05 -3.49184e-05 5.17071e-06 0.00559273 0.000174834 -0.00303467 0.004 300 0 
814 1 1 0.0190787 -0.026284 0.0103731 0 0 0 -8.45932e-05 2.59228e-05 -7.51048e-06 -2.88559e-05 -9.39064e-05 -0.000106654 0.011398 -0.0213786 -0.0175133 0.004 300 0 
24 1 1 0.0289652 -0.0255381 0.0115701 0 0 0 5.22729e-05 1.33851e-05 1.48525e-05 -7.37759e-05 -0.000218642 -0.000118212 0.0225411 -0.00648328 0.00295918 0.004 300 0 
266 1 1 -0.0293341 -0.0224277 0.0104518 0 0 0 -6.83745e-07 2.72192e-05 1.9855e-05 -2.22069e-05 -2.21767e-05 7.74374e-06 -0.00159426 0.00687515 0.00945114 0.004 300 0 
487 1 1 -0.020811 -0.0214234 0.0102405 0 0 0 -9.32171e-07 3.32381e-05 4.27009e-05 -5.65193e-05 -9.39843e-06 -2.71329e-06 0.00212182 0.00884677 0.00482395 0.004 300 0 
655 1 1 0.00191952 -0.0211548 0.0115801 0 0 0 -5.98369e-05 5.03834e-05 1.04606e-05 -4.70271e-05 -4.36829e-05 -3.31202e-05 -0.00320922 -0.0151363 -0.0084795 0.004 300 0 
243 1 1 0.0112838 -0.0227129 0.0108927 0 0 0 -7.00653e-05 5.27715e-05 8.47856e-05 -8.19811e-05 -0.000103153 -6.45948e-05 0.0114888 -0.0144187 -0.000651393 0.004 300 0 