ITEM: TIMESTEP
26400
ITEM: NUMBER OF ATOMS
891
ITEM: BOX BOUNDS mm mm mm
-0.05 0.05
-0.05 0.05
0 0.15
ITEM: ATOMS id type type x y z ix iy iz vx vy vz fx fy fz omegax omegay omegaz radius f_Temp[0] f_heatFlux[0] 
199 1 1 -0.00444377 -0.0458158 0.00397433 0 0 0 1.46618e-06 -1.19529e-06 3.51825e-07 1.07125e-07 -1.0652e-06 5.99221e-07 0.000146989 2.53218e-05 -0.000397983 0.004 439.474 6.81867 
873 1 1 -0.0201484 -0.0414789 0.00390159 0 0 0 5.80547e-07 -1.13132e-06 -1.44241e-07 9.35239e-08 -7.94033e-07 9.87249e-07 6.30947e-05 7.67287e-05 -0.000138612 0.004 334.9 7.12498 
485 1 1 -0.0126796 -0.0442534 0.00397263 0 0 0 1.07306e-06 -1.27289e-06 2.28495e-08 -5.44416e-08 1.52006e-07 5.40403e-07 8.63354e-05 0.000132683 -0.000299531 0.004 357.048 9.65838 
850 1 1 0.00335641 -0.0441759 0.00394113 0 0 0 1.69029e-06 -3.67559e-07 1.38571e-06 9.78158e-07 -8.75977e-08 1.71584e-06 9.94547e-05 0.000164768 0.000780249 0.004 559.481 -3.88711 
186 1 1 0.0114401 -0.0445988 0.00392826 0 0 0 8.68006e-07 -6.91578e-07 1.3149e-06 7.03858e-07 2.14063e-07 1.77286e-06 0.000194817 0.000401996 -0.000127067 0.004 706.597 -9.86427 
560 1 1 0.018969 -0.0420006 0.00394675 0 0 0 1.95447e-07 -7.21307e-07 8.70499e-07 -3.30285e-07 8.87487e-07 1.3826e-06 0.000124478 -3.03297e-05 3.93747e-05 0.004 745.273 -8.62259 
102 1 1 -0.0147501 -0.0357331 0.00386309 0 0 0 1.4396e-06 -3.13145e-06 -4.77716e-07 2.54882e-07 -1.3062e-06 2.9952e-06 0.000387481 8.68555e-05 -0.000249379 0.004 365.02 7.86625 
88 1 1 -0.00730762 -0.0383837 0.00392725 0 0 0 1.48622e-06 -2.31501e-06 8.44347e-07 2.07111e-07 -1.23173e-06 1.99252e-06 0.000390003 -0.000233927 0.000320769 0.004 420.349 7.56098 
776 1 1 0.00520385 -0.0354368 0.00395021 0 0 0 1.03719e-06 -2.7427e-06 1.25888e-06 -1.15459e-06 -1.36221e-06 2.84648e-06 0.000375957 4.49268e-05 3.54838e-05 0.004 623.701 -3.16486 
410 1 1 0.0130236 -0.0368131 0.0039257 0 0 0 7.86562e-07 -1.97782e-06 2.01882e-06 -1.14143e-06 2.51579e-07 2.79134e-06 5.98087e-05 0.000234527 6.62455e-05 0.004 707.545 -8.06846 
282 1 1 0.025876 -0.0381319 0.00388525 0 0 0 1.73331e-07 -1.21327e-06 8.71173e-07 -1.13352e-06 7.69715e-07 2.03265e-06 0.000276578 8.53852e-05 -5.53446e-05 0.004 778.57 -5.44747 
682 1 1 -0.0302016 -0.0348779 0.00393465 0 0 0 3.50625e-07 -1.14978e-06 -5.04892e-07 3.39584e-07 -3.16328e-07 2.07767e-07 3.29834e-05 -2.92914e-05 -0.000135907 0.004 309.644 2.96255 
251 1 1 -0.0224189 -0.0338476 0.00392331 0 0 0 8.94145e-07 -2.23869e-06 -6.16664e-07 2.87384e-07 -9.19313e-07 1.85882e-06 0.000175766 0.000154395 -0.0001054 0.004 328.219 5.86318 
770 1 1 -0.00204753 -0.0321408 0.00393962 0 0 0 1.49523e-06 -3.0323e-06 1.40852e-06 -1.86531e-06 -2.49727e-06 2.98756e-06 0.000432491 -0.000186083 -5.09685e-05 0.004 535.457 2.23651 
883 1 1 0.018166 -0.0307536 0.00390019 0 0 0 3.96857e-07 -3.06345e-06 2.11187e-06 -2.63061e-06 1.40995e-06 5.15038e-06 0.000687548 3.88705e-05 2.53577e-05 0.004 749.717 -7.12847 
838 1 1 0.0320336 -0.033109 0.0039607 0 0 0 -6.1585e-08 -1.3456e-06 9.40707e-07 -1.5662e-06 6.73243e-07 4.11589e-06 0.000206276 0.000204415 0.000263562 0.004 791.571 -2.94113 
617 1 1 -0.0372521 -0.0271215 0.00391646 0 0 0 2.10129e-07 -1.37384e-06 -8.16273e-07 5.04964e-07 -3.16561e-07 1.95701e-07 0.000210563 4.23518e-05 -9.07706e-05 0.004 301.95 0.933815 
824 1 1 -0.0292998 -0.0270298 0.00392984 0 0 0 9.01079e-07 -1.90923e-06 -1.17571e-06 1.42855e-06 -3.94871e-07 4.3652e-07 8.0338e-05 0.000251384 -4.37e-05 0.004 305.753 2.09269 
571 1 1 -0.0202615 -0.0262215 0.00393284 0 0 0 1.03118e-06 -3.51271e-06 -1.45389e-06 1.13379e-06 -1.24607e-06 1.80346e-06 0.000295483 0.000124522 -0.000213116 0.004 325.347 5.70192 
861 1 1 -0.00959295 -0.0297305 0.00389696 0 0 0 1.62492e-06 -4.68722e-06 4.06048e-07 1.00314e-07 -2.13388e-06 3.88438e-06 0.000540967 0.00013813 0.000276549 0.004 414.017 8.31838 
434 1 1 0.0103455 -0.0293807 0.00393739 0 0 0 7.52441e-07 -3.54497e-06 1.96301e-06 -2.6617e-06 3.5405e-08 3.86201e-06 4.36659e-05 -0.000134346 6.05786e-05 0.004 688.868 -6.84945 
103 1 1 0.0311547 -0.0252347 0.0039436 0 0 0 6.23456e-08 -1.89422e-06 9.05761e-07 -1.1208e-06 1.79597e-06 5.24579e-06 0.000137542 -2.30627e-05 -0.00024709 0.004 793.01 -2.38923 
769 1 1 -0.041344 -0.0202818 0.0039823 0 0 0 4.93679e-07 -8.60643e-07 -6.08407e-07 4.48019e-07 -9.34626e-08 -2.13769e-07 -7.67902e-05 0.000170475 -0.000181498 0.004 300.756 0.428565 
94 1 1 -0.0333714 -0.0202163 0.0039437 0 0 0 6.29614e-07 -1.83445e-06 -2.21607e-06 8.7527e-07 -4.15999e-07 -1.23319e-07 -0.000263286 0.00017233 -7.98545e-05 0.004 303.092 1.25749 
40 1 1 -0.025401 -0.0201464 0.00391761 0 0 0 1.09217e-06 -2.98767e-06 -1.93799e-06 1.41061e-06 -5.52254e-07 5.66445e-07 -3.73394e-05 5.73074e-05 -0.000125738 0.004 310.878 3.15472 
19 1 1 -0.00865072 -0.0218804 0.00393964 0 0 0 8.71531e-07 -5.41847e-06 9.10269e-07 1.04415e-06 -1.8621e-06 3.85777e-06 0.000406051 0.000153764 1.30538e-05 0.004 414.761 8.97431 
442 1 1 -0.000436969 -0.02185 0.0039358 0 0 0 9.48675e-07 -6.99592e-06 1.03716e-06 -2.33323e-08 -2.08052e-06 3.94386e-06 0.00135455 0.000228931 -5.04357e-07 0.004 543.373 3.51512 
259 1 1 0.00753191 -0.0220002 0.00392509 0 0 0 7.76492e-07 -5.6114e-06 1.93535e-06 -1.63468e-06 -7.60825e-07 3.39068e-06 0.00102796 -0.00014448 0.000235586 0.004 665.804 -5.49267 
512 1 1 0.0153883 -0.0232356 0.00397832 0 0 0 7.16166e-07 -4.50496e-06 1.16967e-06 -2.16293e-06 -2.73053e-07 3.9009e-06 0.000194596 0.000174142 -0.000232376 0.004 739.539 -6.6351 
470 1 1 0.0232616 -0.0243589 0.00390811 0 0 0 4.84598e-08 -3.7479e-06 1.70066e-06 -2.06271e-06 1.3979e-06 6.65603e-06 0.000539862 -4.3738e-06 0.000449742 0.004 778.659 -4.79769 
451 1 1 0.0390293 -0.0244875 0.00392047 0 0 0 -1.48028e-07 -1.35776e-06 6.63149e-08 -1.15409e-06 -3.04359e-07 1.12012e-06 0.000227904 -1.70278e-06 0.000263907 0.004 797.686 -1.04667 
531 1 1 -0.0164596 -0.0192004 0.00396125 0 0 0 6.76651e-07 -3.42968e-06 -2.72542e-07 7.35905e-07 -5.2862e-07 2.48043e-06 0.000573814 0.000405705 7.39799e-05 0.004 331.877 6.3555 
229 1 1 0.0202059 -0.0169136 0.0038687 0 0 0 2.68791e-07 -4.68408e-06 4.27694e-07 -2.17925e-06 8.38174e-07 7.09291e-06 0.00066376 -5.61305e-05 0.000321562 0.004 768.71 -5.72281 
734 1 1 0.0280521 -0.017942 0.00394394 0 0 0 9.19905e-07 -2.0627e-06 4.3782e-07 -1.32221e-06 7.29625e-07 5.10634e-06 0.00014015 0.000163351 0.000468153 0.004 790.963 -2.62035 
635 1 1 0.0425981 -0.0174495 0.0039219 0 0 0 -8.35733e-08 -6.27031e-07 2.63083e-07 -1.28711e-06 4.44941e-07 1.96056e-06 0.000105683 6.54633e-05 -7.27293e-05 0.004 799.468 -0.305301 
87 1 1 -0.0448224 -0.0104639 0.00391421 0 0 0 -8.23304e-07 -2.71269e-07 -1.15447e-06 1.52736e-07 -1.79098e-07 -3.80006e-07 5.00373e-05 -0.000130562 -0.000144842 0.004 300.204 0.135353 
406 1 1 -0.0373951 -0.013391 0.00396017 0 0 0 7.37443e-07 -1.94905e-06 -3.4848e-06 6.14053e-07 -5.29025e-07 -8.17296e-07 -7.48974e-05 0.000675482 1.94019e-05 0.004 300.825 0.440479 
224 1 1 -0.023058 -0.0126019 0.00387962 0 0 0 1.6764e-06 -4.96581e-06 -2.67283e-06 1.35879e-06 -1.00706e-06 -4.19834e-07 0.000864361 0.000593352 -7.79882e-05 0.004 320.009 4.32512 
751 1 1 -0.0102996 -0.0141546 0.00396944 0 0 0 3.4892e-07 -4.60202e-06 -1.22157e-06 4.53964e-07 -6.74252e-08 1.37548e-06 -9.63946e-05 -0.000142543 -5.19435e-05 0.004 391.451 7.85061 
622 1 1 -0.00273387 -0.0117409 0.00388521 0 0 0 1.78956e-07 -6.11272e-06 -7.14626e-07 6.74646e-08 -4.67865e-07 2.10782e-06 0.000697089 5.41889e-06 -0.000352131 0.004 491.918 3.06449 
128 1 1 0.00951068 -0.0106851 0.00388454 0 0 0 -6.88846e-07 -6.08734e-06 -7.52377e-07 -1.00345e-06 -1.05113e-07 4.05413e-06 0.000887043 -0.000172657 -0.000132574 0.004 700.374 -7.37185 
68 1 1 0.0262808 -0.010211 0.00395435 0 0 0 -3.4968e-08 -3.17586e-06 4.70172e-08 -2.15911e-06 1.09008e-06 5.95723e-06 0.000312732 -0.000100506 -0.000160621 0.004 792.921 -2.35169 
791 1 1 0.0340945 -0.0118532 0.00392798 0 0 0 1.90923e-06 -1.67457e-06 -1.99896e-06 -1.29348e-06 -1.09312e-06 3.68488e-06 0.000699493 0.000517534 0.000981783 0.004 798.47 -0.72449 
354 1 1 -0.0380748 -0.00550396 0.00392044 0 0 0 -1.67516e-06 -1.7874e-06 -4.1153e-06 -7.51799e-07 -2.74424e-07 -1.1664e-06 1.74278e-06 -0.000574979 0.00019122 0.004 300.787 0.408754 
725 1 1 -0.0304901 -0.00800531 0.00392521 0 0 0 1.1568e-06 -1.89654e-06 -2.82638e-06 1.87629e-07 -9.65257e-08 -6.22706e-07 5.06859e-05 0.0002229 0.000531154 0.004 302.819 1.15623 
353 1 1 -0.0161288 -0.0087981 0.00391144 0 0 0 5.08052e-07 -4.64419e-06 -2.34886e-06 3.87688e-07 -1.96496e-07 -5.80894e-07 0.0006673 -9.54506e-05 0.00011881 0.004 351.416 6.76757 
391 1 1 -0.0085766 -0.00639749 0.00391357 0 0 0 1.1401e-07 -4.29216e-06 -1.31576e-06 5.78673e-07 -9.21798e-08 -1.86635e-07 0.000239043 -0.000107832 9.01459e-05 0.004 416.334 7.28099 
683 1 1 0.0173534 -0.00945631 0.00390983 0 0 0 -4.56566e-07 -5.06655e-06 7.82622e-07 -1.51446e-06 1.34828e-06 4.35955e-06 0.000705194 -0.000100554 0.000103675 0.004 761.256 -6.29485 
690 1 1 0.0385537 -0.00520143 0.00390019 0 0 0 1.08967e-06 -1.92879e-06 -3.8698e-07 -1.32154e-06 -6.64014e-07 4.46373e-06 0.000442158 0.000148448 0.000287932 0.004 799.415 -0.30964 
10 1 1 0.0449635 -0.00990888 0.00397398 0 0 0 6.91789e-07 -3.57843e-07 -5.39487e-07 -3.21722e-07 1.04068e-06 9.6584e-07 -0.000248116 3.49665e-05 -4.00591e-05 0.004 799.815 -0.123565 
402 1 1 -0.0460169 -0.00264172 0.00392183 0 0 0 -1.23993e-06 -6.61711e-08 -2.12809e-06 -5.0436e-07 2.41011e-07 -6.82357e-07 -6.55823e-05 7.01716e-05 6.9193e-05 0.004 300.299 0.175869 
761 1 1 -0.0294744 -0.000168336 0.00392565 0 0 0 -5.80218e-07 -2.44285e-06 -4.13737e-06 -1.11636e-06 -1.05464e-07 -2.11456e-06 0.000356947 -0.00028033 -0.000115877 0.004 306.315 2.04938 
293 1 1 -0.0229324 -0.00466872 0.00395951 0 0 0 4.88302e-07 -4.02798e-06 -2.43842e-06 -3.46566e-07 -5.49798e-07 -1.23894e-06 -0.000218349 6.60743e-05 -4.44019e-05 0.004 317.972 4.28959 
384 1 1 -0.0147935 -0.000819014 0.00398151 0 0 0 0.000334094 -0.000724601 -1.62347e-05 -2.32824e-07 -1.04451e-07 -1.23248e-05 0.181871 0.0835513 0.226562 0.004 301.492 0 
378 1 1 0.00130611 -0.00490408 0.00392904 0 0 0 -1.61455e-07 -3.66886e-06 -1.20254e-07 3.28624e-07 -3.57739e-08 1.42585e-06 0.000262464 7.30861e-05 0.000532674 0.004 563.31 -2.61649 
390 1 1 0.0103707 -0.00276533 0.00396884 0 0 0 -1.25992e-06 -5.66703e-06 1.35899e-07 -1.18943e-06 1.85706e-07 2.07877e-06 0.000304595 -6.79792e-05 9.14468e-05 0.004 727.774 -9.23853 
411 1 1 0.0223603 -0.00329288 0.00397622 0 0 0 -1.79135e-06 -3.52334e-06 -7.02545e-08 -1.53433e-06 7.18263e-07 4.88934e-06 -0.000135564 1.58523e-05 0.000598176 0.004 786.699 -3.68321 
342 1 1 0.0307348 -0.00361667 0.00397527 0 0 0 1.38899e-06 -3.30926e-06 1.56556e-07 -7.35694e-07 1.22496e-06 2.81764e-06 0.000285334 0.000362849 -7.56233e-05 0.004 798.345 -0.771978 
262 1 1 0.0460221 -0.00206505 0.00395832 0 0 0 1.51992e-07 -6.90258e-07 -3.20723e-07 -1.27613e-06 2.00188e-07 9.41299e-07 0.000238079 -3.11348e-05 0.000150323 0.004 799.829 -0.115201 
261 1 1 -0.0398214 0.00224601 0.00393478 0 0 0 -9.77996e-07 -9.29525e-07 -3.05146e-06 -8.7434e-07 2.05263e-07 -1.44881e-06 0.00019987 0.000141178 -0.00029416 0.004 301.067 0.4883 
666 1 1 -0.00454674 0.000451418 0.00395604 0 0 0 -1.08252e-06 -4.30273e-06 -4.23775e-07 -2.43183e-07 2.3404e-07 -6.49178e-07 0.000364331 -0.000210683 6.1308e-05 0.004 470.561 5.31061 
815 1 1 0.00434369 0.00243558 0.0039271 0 0 0 -7.13363e-07 -3.37403e-06 -6.84541e-07 1.09869e-06 5.94911e-07 4.0887e-07 0.000220599 -0.000180987 -0.000712352 0.004 636.721 -7.05929 
306 1 1 0.01637 0.00247664 0.00395807 0 0 0 -2.78934e-06 -4.73917e-06 -1.00662e-07 1.09808e-07 3.3478e-07 2.6544e-06 0.000855118 -0.000149853 0.000490593 0.004 772.278 -6.28781 
178 1 1 0.0241042 0.00444174 0.00386111 0 0 0 -2.39692e-06 -3.38396e-06 4.08639e-08 -9.26335e-07 7.90834e-07 3.86727e-06 0.000533434 -0.000395195 -0.000490911 0.004 787.941 -3.48498 
862 1 1 0.0320657 0.00423366 0.00393094 0 0 0 -1.28627e-06 -2.58651e-06 8.22521e-07 -7.37026e-07 2.13725e-06 2.60583e-06 0.00036662 -0.000153035 0.000697203 0.004 797.023 -1.21202 
661 1 1 0.0398756 0.0029147 0.00394678 0 0 0 -2.88962e-07 -8.25028e-07 1.31303e-07 -1.63599e-06 1.33923e-06 1.97429e-06 0.000117118 4.98135e-05 -0.00010944 0.004 799.348 -0.346571 
677 1 1 -0.0453782 0.00788539 0.00393642 0 0 0 -2.14171e-07 -1.06193e-07 -9.56962e-07 -5.32228e-07 3.06276e-07 -7.7028e-07 0.000118105 5.65918e-05 -4.14142e-05 0.004 300.29 0.1746 
12 1 1 -0.0333161 0.0067196 0.00393698 0 0 0 1.8443e-07 -1.89964e-06 -2.16764e-06 -7.76779e-07 -2.19505e-08 -2.16769e-06 0.000470079 -0.000119332 -0.000124129 0.004 303.932 1.38553 
420 1 1 -0.0253999 0.00664838 0.00392689 0 0 0 8.67316e-07 -2.89955e-06 -1.91013e-06 -6.02915e-07 -6.0239e-07 -3.13044e-06 0.000604795 0.000319503 -0.00020207 0.004 314.119 3.45141 
654 1 1 -0.0175134 0.00720947 0.00387214 0 0 0 7.13452e-07 -3.82289e-06 -1.61059e-06 -9.58627e-07 -1.15737e-06 -3.68364e-06 0.000792292 -1.5607e-05 -0.00010213 0.004 340.882 6.36883 
145 1 1 -0.00454406 0.00836536 0.00386312 0 0 0 -1.80225e-07 -3.92568e-06 6.22561e-07 7.16753e-07 -5.16396e-07 -2.12314e-06 0.00059719 -0.000156047 -0.000420481 0.004 466.037 6.00642 
624 1 1 0.0451449 0.00890653 0.00390656 0 0 0 -3.062e-07 -7.72878e-07 7.03726e-08 -1.91541e-06 2.74344e-07 1.65085e-06 0.000138614 -5.5124e-05 6.80694e-05 0.004 799.717 -0.175528 
613 1 1 -0.0372991 0.0135339 0.00384346 0 0 0 4.91036e-07 -9.75565e-07 -8.02864e-07 -1.35688e-06 7.14767e-09 -2.51105e-06 0.000193946 1.66062e-07 -6.92055e-05 0.004 301.442 0.654152 
265 1 1 -0.0293062 0.0135429 0.00396373 0 0 0 9.52487e-07 -1.81889e-06 3.62449e-07 -6.22819e-07 -3.27564e-07 -2.18339e-06 0.000127698 -0.000163937 -8.00484e-05 0.004 306.506 2.18121 
273 1 1 -0.0213694 0.0141274 0.00392941 0 0 0 1.53518e-06 -2.48157e-06 7.91511e-07 -2.713e-08 -3.72513e-07 -2.73428e-06 0.000271632 0.000345032 1.77231e-05 0.004 318.366 4.49451 
492 1 1 -0.01145 0.0123712 0.00398081 0 0 0 4.40805e-07 -2.96857e-06 4.85628e-07 -6.64822e-07 -7.47836e-07 -2.72322e-06 0.000375916 0.000151909 0.000234156 0.004 376.741 9.88941 
234 1 1 0.00585287 0.0103929 0.0039289 0 0 0 -1.76709e-06 -3.07564e-06 8.16385e-07 7.11573e-07 1.06975e-06 -6.9558e-07 0.000355589 -0.000165636 -0.0010465 0.004 620.378 -4.36102 
160 1 1 0.0142843 0.0106356 0.00390956 0 0 0 -2.80801e-06 -3.9034e-06 1.13591e-06 -2.4682e-07 1.06391e-06 9.23143e-07 0.000698284 -0.000351873 -0.000368025 0.004 735.342 -7.45877 
484 1 1 0.0220893 0.0120738 0.00390118 0 0 0 -2.31613e-06 -2.92415e-06 1.38142e-06 -1.0949e-06 1.38879e-06 8.81488e-07 0.000292209 -0.000305747 0.000420682 0.004 778.337 -4.58465 
743 1 1 0.0300184 0.0126216 0.00398126 0 0 0 -1.36279e-06 -1.26176e-06 7.28012e-07 -1.1661e-06 1.79308e-06 7.45788e-07 6.11555e-05 0.000125056 6.73198e-05 0.004 792.834 -2.29078 
514 1 1 0.0379537 0.0130186 0.00386904 0 0 0 -8.34765e-07 -1.08487e-06 3.3448e-07 -1.89419e-06 1.43048e-06 2.16849e-06 0.000230247 -0.000133528 5.3322e-05 0.004 798.225 -0.773348 
530 1 1 -0.0159002 0.0198648 0.00392798 0 0 0 1.44281e-06 -2.36266e-06 5.64954e-07 -8.80871e-07 8.2011e-07 -2.65688e-06 0.000307299 0.000137979 -8.45997e-05 0.004 337.491 6.8993 
227 1 1 -0.00736501 0.0192084 0.00396597 0 0 0 4.2602e-07 -2.49124e-06 1.79126e-06 -8.82499e-07 -3.66093e-07 -3.46732e-06 0.000404824 0.000122074 -0.00042474 0.004 423.593 9.59707 
392 1 1 -0.000498613 0.0151513 0.00394447 0 0 0 -5.28201e-07 -2.44155e-06 1.55471e-06 1.83357e-07 8.23529e-07 -2.22061e-06 0.000109878 0.000252191 0.000815017 0.004 518.9 3.62474 
493 1 1 0.00985841 0.0172531 0.00394647 0 0 0 -2.03241e-06 -3.63247e-06 1.88161e-06 -6.20022e-07 1.48345e-06 -7.82484e-07 0.000348013 -0.000102769 0.000612283 0.004 677.253 -6.49961 
34 1 1 0.0176357 0.0187852 0.00394099 0 0 0 -2.71334e-06 -2.44846e-06 2.24894e-06 -1.61415e-06 2.39928e-06 -3.71915e-07 0.000731989 -0.000353616 1.35653e-05 0.004 745.525 -6.82591 
206 1 1 0.0255398 0.0192353 0.00396992 0 0 0 -1.96331e-06 -2.42492e-06 1.44241e-06 -1.6453e-06 1.06697e-06 3.86397e-07 0.000204162 0.000421044 -5.35911e-05 0.004 782.154 -3.9753 
104 1 1 0.0334175 0.0199346 0.00389649 0 0 0 -1.69398e-06 -1.87707e-06 3.11259e-07 -1.74011e-06 1.59009e-06 1.14349e-06 0.000419708 -0.000342712 0.000249165 0.004 794.612 -1.81026 
809 1 1 -0.0412058 0.0204949 0.00395498 0 0 0 4.16629e-07 -4.43524e-07 -1.91308e-07 -5.0923e-07 1.17478e-07 -9.97774e-07 8.33527e-05 7.13481e-05 -6.54362e-06 0.004 300.476 0.289043 
773 1 1 -0.0331523 0.0204531 0.00393524 0 0 0 8.39327e-07 -9.90986e-07 -1.19549e-07 -1.41872e-06 1.30267e-07 -3.29753e-06 6.80915e-05 4.40166e-05 -2.00984e-05 0.004 303.172 1.32824 
792 1 1 0.00347679 0.0219735 0.00392106 0 0 0 -9.20034e-07 -2.8539e-06 2.2302e-06 -9.82578e-07 1.17817e-06 -1.98555e-06 0.000430644 -0.000207426 -0.000926905 0.004 594.038 -2.09179 
718 1 1 0.0413199 0.0203659 0.00392988 0 0 0 -8.56421e-07 -7.46538e-07 5.2687e-07 -1.09309e-06 8.86478e-07 9.22799e-07 0.000185709 6.08971e-06 3.22536e-05 0.004 798.436 -0.726563 
101 1 1 -0.0371146 0.0272995 0.00390403 0 0 0 5.68643e-07 -6.73998e-07 4.60417e-07 -1.08535e-06 9.97414e-07 -1.97742e-06 0.00017963 2.35879e-05 -4.40424e-05 0.004 301.664 0.819321 
246 1 1 -0.0290567 0.0272807 0.00398272 0 0 0 1.10331e-06 -1.1608e-06 5.32007e-07 -5.92593e-07 -3.38198e-07 -1.49328e-06 0.00011839 -3.75351e-05 -0.000103309 0.004 304.449 1.63854 
331 1 1 -0.0212281 0.0257798 0.00390021 0 0 0 1.2404e-06 -2.05861e-06 1.38269e-06 -7.63084e-07 3.95362e-07 -3.65055e-06 0.000325805 0.000101306 -8.34678e-05 0.004 320.026 4.42622 
846 1 1 -0.0134708 0.0274168 0.00397482 0 0 0 6.86134e-07 -1.4948e-06 1.68722e-06 -2.37285e-06 2.59782e-06 -2.81891e-06 0.000271327 0.000164373 0.000412693 0.004 360.566 7.32961 
348 1 1 -0.00329914 0.0260611 0.00393376 0 0 0 2.8378e-07 -1.38241e-06 2.30573e-06 -1.82774e-06 1.27116e-06 -3.31441e-06 5.9531e-05 0.000263066 0.000539549 0.004 494.706 4.54256 
786 1 1 0.00840354 0.0281551 0.00389685 0 0 0 -6.367e-09 -3.05124e-06 3.14327e-06 -1.52675e-06 1.28287e-06 -1.07659e-06 0.000545499 7.60525e-05 0.000435164 0.004 660.281 -6.39281 
316 1 1 0.0162833 0.0272928 0.0039063 0 0 0 -4.83604e-07 -2.09982e-06 1.80928e-06 -1.46956e-06 2.2319e-06 -9.45264e-07 0.000264724 0.000143566 -5.53285e-05 0.004 743.955 -7.20453 
495 1 1 0.0288861 0.0264618 0.00396715 0 0 0 -1.3402e-06 -2.31543e-06 7.77199e-07 -1.74903e-06 1.47639e-06 -1.15322e-07 0.000320988 -0.000198097 -0.000102272 0.004 791.433 -2.77669 
863 1 1 0.0367263 0.0277633 0.00392936 0 0 0 -4.1887e-07 -1.24805e-06 1.98502e-07 -1.21182e-06 1.03611e-06 1.75698e-08 0.000223808 4.59528e-05 0.000162041 0.004 797.672 -1.07079 
511 1 1 -0.00761833 0.0327132 0.00388555 0 0 0 7.20228e-07 -1.29422e-06 2.50931e-06 -2.18327e-06 2.49454e-06 -3.93677e-06 0.000178099 -7.75172e-06 -0.000438908 0.004 448.994 6.90792 
722 1 1 0.00164034 0.0322874 0.00396636 0 0 0 1.36219e-07 -1.52505e-06 2.38554e-06 -1.69644e-06 1.39988e-06 -2.19497e-06 0.000116715 -0.000343834 -0.000701631 0.004 573.961 -2.21195 
2 1 1 0.0229311 0.031696 0.00396243 0 0 0 -4.80002e-07 -1.40602e-06 1.0986e-06 -1.70887e-06 7.89275e-07 -2.70678e-07 7.65497e-05 1.83349e-06 -7.09612e-05 0.004 777.265 -5.50187 
254 1 1 0.0304655 0.0344592 0.0039815 0 0 0 -0.000818632 0.000870518 -1.65405e-14 1.22248e-18 -4.77271e-18 2.58994e-14 -0.218134 -0.205132 -0.0703935 0.004 800 0 
257 1 1 -0.0296322 0.0352231 0.00395614 0 0 0 1.22188e-06 -8.59842e-07 7.22701e-07 -1.49969e-06 2.26259e-07 -1.32642e-06 7.81999e-05 0.00013336 9.18436e-06 0.004 304.117 1.71382 
582 1 1 -0.0157655 0.0356205 0.00393207 0 0 0 2.19893e-06 -9.63772e-07 1.53759e-06 -3.93268e-06 -6.2918e-07 -3.88237e-06 8.71416e-05 0.000410387 0.00043674 0.004 324.381 5.73563 
255 1 1 -0.00267124 0.038932 0.00391149 0 0 0 1.13313e-06 -8.57411e-07 2.13172e-06 -1.80142e-07 1.63772e-06 -3.2792e-06 8.34582e-05 0.000194746 0.000305629 0.004 503.765 3.09321 
887 1 1 0.00812085 0.0373183 0.00392889 0 0 0 3.45613e-07 -1.64998e-06 1.74694e-06 -5.60088e-07 9.97905e-07 -1.19589e-06 0.000202493 0.0001949 0.000227823 0.004 701.411 -9.8449 
719 1 1 0.0157853 0.0351951 0.00398364 0 0 0 3.67257e-07 -9.75288e-07 1.10881e-06 -5.94107e-07 9.88662e-07 -1.01409e-06 -0.000206484 3.32847e-05 -0.000143033 0.004 754.762 -8.22653 
21 1 1 0.0234243 0.0396338 0.00391497 0 0 0 3.33936e-07 -5.66887e-07 1.80862e-07 -7.97663e-07 7.34301e-07 -1.01392e-07 2.0006e-05 5.43373e-05 -4.99319e-05 0.004 780.347 -5.08544 
325 1 1 -0.0222387 0.0402984 0.00393952 0 0 0 9.28019e-07 -1.03532e-06 9.18436e-07 -1.64331e-06 1.29778e-07 -1.9386e-06 2.16939e-05 0.000101402 0.000139053 0.004 316.336 4.62511 
595 1 1 -0.014931 0.0435393 0.00398255 0 0 0 1.23568e-07 -3.00877e-07 6.62655e-07 -3.45766e-07 -5.1285e-07 -5.36407e-07 -0.000111392 -7.30455e-05 5.24192e-06 0.004 347.656 6.69222 
568 1 1 0.0162912 0.0430934 0.00392629 0 0 0 5.06395e-07 -6.13118e-07 4.40616e-07 -3.90465e-07 6.74703e-07 -3.34929e-07 5.34635e-05 0.000133752 0.000152865 0.004 748.971 -7.87639 
387 1 1 -0.00719691 0.045487 0.00389933 0 0 0 1.74576e-07 -6.37761e-07 1.15835e-06 2.3955e-07 1.02958e-06 -1.67975e-06 -0.000112651 2.02338e-05 5.26486e-05 0.004 452.912 6.21806 
852 1 1 0.000758889 0.0460615 0.00397618 0 0 0 6.66366e-08 -2.09333e-07 9.41319e-07 -8.36054e-08 4.70445e-07 -1.28406e-06 -0.000200033 -3.72127e-05 -3.44543e-05 0.004 562.248 -2.68922 
157 1 1 0.00865318 0.0452492 0.00389825 0 0 0 1.99419e-07 -1.19016e-06 1.23955e-06 9.6394e-08 5.92925e-07 -8.02605e-07 0.000103469 0.000108959 -3.27854e-05 0.004 681.865 -8.45811 
400 1 1 -0.024752 -0.0387964 0.00974417 0 0 0 5.47052e-07 -1.50816e-06 -3.2525e-07 6.56129e-07 -6.43447e-07 1.83482e-06 -2.14621e-06 -0.000156211 8.11876e-05 0.004 314.439 4.37925 
606 1 1 -0.00065394 -0.0387267 0.00813887 0 0 0 2.03505e-06 -2.64642e-06 2.93394e-06 -1.90288e-06 -8.4004e-07 4.83661e-06 -0.000176316 0.000327721 -0.000225534 0.004 540.478 1.91943 
724 1 1 -0.0339144 -0.0311598 0.00984801 0 0 0 -9.21908e-08 -2.69855e-06 -1.38547e-06 6.54699e-07 -4.47339e-07 2.62274e-07 0.00016688 -3.38731e-05 -0.000162078 0.004 303.812 1.52817 
183 1 1 0.0251947 -0.0311656 0.00751468 0 0 0 1.15924e-07 -3.99141e-06 2.91516e-06 -1.08595e-06 2.17202e-06 7.68511e-06 0.000249019 -0.000322223 -4.11096e-05 0.004 781.631 -4.54243 
544 1 1 -0.0140218 -0.0253028 0.0087496 0 0 0 1.8536e-06 -9.12115e-06 -1.7785e-07 1.04259e-06 -3.04904e-06 5.75615e-06 0.000187995 -0.000132838 -0.000239466 0.004 364.195 7.77885 
29 1 1 -0.00450628 -0.0263794 0.00900722 0 0 0 2.20192e-06 -8.65943e-06 1.68619e-06 -3.78898e-08 -2.16512e-06 7.94303e-06 -9.21865e-05 0.000292798 -0.000413759 0.004 460.826 7.45692 
248 1 1 0.00349902 -0.0278426 0.007633 0 0 0 2.76795e-06 -6.08733e-06 3.63218e-06 -4.36836e-06 -9.08794e-07 9.89251e-06 0.000163402 0.000451858 3.00087e-06 0.004 609.011 -4.24479 
79 1 1 0.035837 -0.0289489 0.00959643 0 0 0 1.8828e-07 -7.60309e-07 6.33694e-07 -2.23948e-07 2.61438e-06 6.4727e-06 -0.000376663 0.000328314 -2.19047e-06 0.004 795.683 -1.74333 
291 1 1 -0.0045887 -0.0173975 0.00909518 0 0 0 6.17787e-07 -9.93201e-06 1.47041e-06 -3.02089e-07 -2.94322e-07 6.11192e-06 4.10422e-05 -0.000190244 3.77935e-05 0.004 486.397 3.57008 
891 1 1 0.0037349 -0.015528 0.00632503 0 0 0 -4.8685e-07 -7.90891e-06 7.25289e-07 -7.73132e-07 -1.11931e-06 5.6974e-06 -0.00121087 0.000115893 0.000380348 0.004 604.221 -2.93671 
870 1 1 0.0138323 -0.0156364 0.00831008 0 0 0 -6.59303e-07 -9.09456e-06 9.73005e-07 -4.16082e-06 6.51414e-07 1.07966e-05 -0.000297888 0.000162203 0.000410059 0.004 730.919 -8.20282 
777 1 1 0.034969 -0.018778 0.00770998 0 0 0 3.43327e-06 3.93143e-08 -2.31048e-06 -3.7208e-07 -9.00488e-08 2.56184e-06 -0.00147975 0.000509959 -0.0010855 0.004 797.616 -0.99988 
837 1 1 -0.029449 -0.0146727 0.00803326 0 0 0 1.21422e-06 -4.45213e-06 -4.05989e-06 1.04075e-06 -9.862e-07 -4.9306e-07 0.00060078 -0.000421174 -0.000576103 0.004 306.416 2.01405 
445 1 1 -0.0181358 -0.0138493 0.00995274 0 0 0 1.44166e-06 -1.24007e-05 -3.85608e-06 7.41618e-07 -2.48773e-06 1.0336e-06 0.000555428 -0.00032591 -0.000683346 0.004 338.265 6.15994 
783 1 1 0.00485902 -0.00860661 0.00993762 0 0 0 -1.59234e-06 -9.78015e-06 -8.69968e-07 -7.86243e-07 9.91629e-07 4.74653e-06 0.0010419 -0.000534564 -0.000601504 0.004 627.322 -5.15641 
615 1 1 -0.0350999 -0.000758713 0.00955185 0 0 0 -2.04521e-06 -4.64773e-06 -7.53514e-06 -1.81288e-06 6.58789e-08 -3.25772e-06 0.000444026 0.00027901 -0.000519603 0.004 302.237 0.883193 
476 1 1 -0.0459521 0.00262139 0.00988979 0 0 0 -1.05539e-06 -6.89675e-07 -2.71776e-06 -2.61355e-07 5.38107e-07 -9.87141e-07 0.000166996 0.000253748 -0.000137722 0.004 300.167 0.111014 
16 1 1 -0.0210455 0.00169438 0.00830929 0 0 0 5.16158e-08 -7.38456e-06 -5.6329e-06 -1.94472e-06 -7.84543e-07 -4.23125e-06 0.000432777 -0.000629353 -8.12728e-05 0.004 324.244 5.04614 
303 1 1 0.0459492 0.00350463 0.00962653 0 0 0 -4.43106e-08 -1.15354e-06 1.7048e-07 -2.51915e-06 7.36567e-07 3.6425e-06 -0.000144153 5.14542e-05 0.000227011 0.004 799.765 -0.151176 
523 1 1 -0.0389797 0.0080308 0.00932865 0 0 0 -6.95107e-07 -2.37204e-06 -4.0001e-06 -1.15032e-06 1.58146e-06 -3.61151e-06 0.000268188 -0.00025806 -0.00022097 0.004 301.045 0.493181 
704 1 1 -0.0107979 0.00519221 0.00743862 0 0 0 -1.15916e-07 -6.51947e-06 -1.66339e-06 -1.5249e-06 -7.19388e-07 -4.07981e-06 0.000347054 -0.000358728 0.000236635 0.004 390.694 8.19556 
454 1 1 0.00101185 0.00715928 0.00933955 0 0 0 -2.16003e-06 -8.02683e-06 7.08632e-07 -1.38339e-06 2.36785e-06 -1.93757e-06 0.00112215 -0.000147002 0.0013947 0.004 554.78 -0.122924 
31 1 1 0.0102165 0.00547586 0.00832586 0 0 0 -4.48124e-06 -7.3837e-06 2.73251e-07 -1.54764e-06 3.18622e-06 1.92349e-06 0.000555886 -0.000411653 0.000433411 0.004 690.039 -7.64625 
135 1 1 0.0188886 0.00749166 0.00960779 0 0 0 -5.49697e-06 -6.78781e-06 7.94383e-07 -3.33318e-06 3.24539e-06 2.71807e-06 4.62703e-05 -0.000199475 0.00011878 0.004 778.593 -5.25323 
712 1 1 0.0281139 0.00743264 0.00998849 0 0 0 -4.32735e-06 -5.41929e-06 6.97379e-07 -5.00628e-06 2.88031e-06 6.32482e-06 -4.78347e-05 6.96566e-05 0.00066864 0.004 793.022 -2.39248 
210 1 1 0.0394934 0.00814605 0.00989876 0 0 0 -4.72397e-07 -1.9796e-06 2.14704e-07 -5.31495e-06 2.71904e-06 5.38206e-06 8.4928e-05 -2.93713e-05 0.000144682 0.004 799.224 -0.409921 
651 1 1 -0.0437987 0.0143398 0.00823568 0 0 0 2.92484e-07 -6.36898e-07 -9.31252e-07 -1.20243e-06 1.57952e-07 -2.2053e-06 0.000117133 4.02184e-05 -0.000161189 0.004 300.446 0.258959 
621 1 1 0.0437182 0.0147846 0.00900763 0 0 0 -9.96148e-07 -9.58691e-07 3.61317e-07 -2.53394e-06 1.54852e-06 2.2774e-06 2.57785e-06 0.000106909 0.000155835 0.004 799.007 -0.482917 
726 1 1 -0.0257657 0.0199972 0.00692828 0 0 0 1.32614e-06 -2.39025e-06 1.12015e-06 -1.84589e-06 6.93462e-07 -5.42392e-06 -0.000116746 -0.000266459 -0.000103917 0.004 309.378 2.90407 
230 1 1 -0.00847463 0.024595 0.0097378 0 0 0 1.03894e-06 -4.57075e-06 4.71347e-06 -3.10403e-06 3.31836e-06 -8.95932e-06 0.000461294 -0.000232735 -1.08064e-05 0.004 432.92 7.92649 
320 1 1 -0.00171262 0.0204049 0.00979388 0 0 0 -1.35163e-06 -5.67543e-06 4.5119e-06 -2.46247e-06 4.58268e-06 -5.90941e-06 0.000753201 -4.56712e-05 -0.000254728 0.004 511.85 5.16069 
7 1 1 0.0129211 0.0224302 0.00918517 0 0 0 -4.1089e-06 -5.50146e-06 4.20661e-06 -2.92162e-06 3.80006e-06 -1.56345e-06 0.000371379 -0.000379658 -0.000702024 0.004 718.134 -7.54721 
83 1 1 0.0214165 0.0239651 0.00888424 0 0 0 -3.33541e-06 -3.67966e-06 3.21487e-06 -3.80951e-06 3.38264e-06 -1.31103e-07 -9.55264e-05 -0.000929104 -0.000366561 0.004 776.767 -4.89923 
747 1 1 -0.0337321 0.0313835 0.00974075 0 0 0 1.32768e-06 -1.62022e-06 1.4225e-06 -2.55035e-06 1.86499e-06 -4.75298e-06 -0.000166882 -3.27796e-05 -0.000157439 0.004 304.499 1.72937 
51 1 1 -0.0226191 0.0329654 0.00703454 0 0 0 2.35587e-06 -2.14145e-06 2.08067e-06 -2.52391e-06 4.52995e-07 -4.53252e-06 -0.000150127 -7.51329e-05 -2.71483e-05 0.004 310.732 3.45364 
116 1 1 -0.00940734 0.0391203 0.0080982 0 0 0 2.21094e-06 -2.06445e-06 3.84175e-06 -1.33338e-06 3.61224e-06 -6.79028e-06 -3.01902e-05 0.000310603 0.000170821 0.004 433.761 8.26118 
205 1 1 -0.000560459 -0.0460776 0.0110171 0 0 0 1.59571e-06 -1.06376e-06 2.41657e-06 -4.31106e-07 3.95062e-07 3.95239e-06 0.000477774 0.000237034 -0.000133411 0.004 527.92 6.91512 
836 1 1 0.00737985 -0.0454689 0.0106611 0 0 0 2.032e-06 -1.47597e-06 2.9707e-06 -3.87548e-07 6.0451e-07 2.80046e-06 0.000570822 -8.3474e-05 -0.000562308 0.004 634.93 -5.90334 
486 1 1 -0.0156916 -0.0402432 0.0103351 0 0 0 1.72454e-06 -2.90719e-06 1.2679e-07 -5.31705e-07 -1.55873e-06 3.79932e-06 -0.0002773 0.000229369 -0.000436847 0.004 347.103 7.91638 
311 1 1 -0.00836811 -0.0439882 0.010679 0 0 0 2.76839e-06 -3.61341e-06 1.2085e-06 1.8575e-06 1.89247e-06 1.8671e-06 0.000531962 0.000174308 0.000229047 0.004 386.725 11.463 
447 1 1 0.0180551 -0.0423881 0.0118323 0 0 0 1.83771e-06 -1.17622e-06 3.608e-06 -5.04597e-07 2.53432e-06 4.88643e-06 0.000257176 0.000754672 -0.000249252 0.004 736.469 -8.67835 
538 1 1 -0.0295743 -0.035351 0.0149849 0 0 0 -5.48225e-07 -3.09702e-06 -1.15351e-06 -3.48441e-07 -5.94329e-07 1.73216e-06 8.98131e-06 -0.000100837 -6.71797e-06 0.004 308.155 2.64398 
279 1 1 0.011155 -0.0385418 0.0114152 0 0 0 2.36154e-06 -3.7263e-06 7.08711e-06 -2.48552e-06 2.77689e-06 6.88308e-06 0.000135332 1.65284e-05 0.000519069 0.004 684.514 -7.54232 
110 1 1 0.0250464 -0.0386628 0.0117241 0 0 0 1.12125e-06 -9.47576e-07 1.8112e-06 -8.70994e-08 3.26575e-06 3.33e-06 -0.000146555 0.000282558 4.71373e-05 0.004 771.74 -6.22457 
188 1 1 -0.0179041 -0.0321007 0.0101563 0 0 0 1.80411e-06 -7.95153e-06 -1.08448e-06 -2.71733e-07 -2.45472e-06 5.7434e-06 0.000738609 -8.91997e-05 -6.54228e-05 0.004 342.351 6.94577 
810 1 1 -0.0102601 -0.034451 0.0102036 0 0 0 3.19769e-06 -7.05493e-06 4.79111e-07 -1.05168e-06 -1.7083e-06 7.19064e-06 0.000277342 5.52816e-05 -0.000348898 0.004 398.725 8.09429 
412 1 1 -0.00316743 -0.0328806 0.0133526 0 0 0 2.87764e-06 -8.20738e-06 3.98762e-06 -3.97138e-06 8.6628e-07 1.34959e-05 5.30653e-05 -0.000424766 0.000321848 0.004 482.741 4.74009 