ITEM: TIMESTEP
22400
ITEM: NUMBER OF ATOMS
891
ITEM: BOX BOUNDS mm mm mm
-0.05 0.05
-0.05 0.05
0 0.15
ITEM: ATOMS id type type x y z ix iy iz vx vy vz fx fy fz omegax omegay omegaz radius f_Temp[0] f_heatFlux[0] 
199 1 1 -0.00444375 -0.0458158 0.00397437 0 0 0 -2.60158e-06 -3.20917e-06 1.35723e-05 -1.10368e-05 9.83397e-06 -7.29016e-06 0.0030626 -0.00067421 0.00109129 0.004 391.184 17.4223 
873 1 1 -0.0201484 -0.0414789 0.00390162 0 0 0 3.30699e-06 5.13356e-06 7.65396e-06 -1.50865e-06 -7.9827e-06 -1.26308e-05 0.000351717 -0.000282946 -0.000375151 0.004 304.75 4.32668 
485 1 1 -0.0126796 -0.0442534 0.00397267 0 0 0 -1.87152e-06 -1.01269e-07 1.16092e-05 -1.05504e-05 8.08459e-06 -1.59008e-05 0.00247477 -0.00163771 0.000514511 0.004 311.599 8.15724 
850 1 1 0.00335644 -0.0441759 0.00394119 0 0 0 2.1416e-06 9.40003e-06 2.08358e-05 1.34109e-06 1.44881e-05 -5.39456e-06 -0.0018048 0.000228147 0.000875246 0.004 619.198 -30.1934 
186 1 1 0.0114401 -0.0445988 0.00392829 0 0 0 -1.11425e-06 3.98029e-06 8.24774e-06 5.46556e-06 1.73848e-06 -1.39633e-06 0.000480993 0.000156339 -0.000171411 0.004 768.454 -16.0339 
560 1 1 0.018969 -0.0420006 0.00394677 0 0 0 -2.56333e-06 3.34132e-06 7.27149e-06 5.73967e-06 3.80708e-06 -5.39477e-06 -0.000335955 0.000607205 -0.00075831 0.004 788.652 -8.23662 
102 1 1 -0.0147501 -0.0357331 0.00386314 0 0 0 4.53595e-06 1.32741e-05 1.59673e-05 -2.61242e-06 -8.37201e-06 -7.91294e-06 -0.00102564 -7.1253e-05 0.0017098 0.004 319.614 11.1394 
88 1 1 -0.00730758 -0.0383837 0.00392731 0 0 0 3.88709e-06 5.40853e-06 1.84553e-05 -6.3705e-06 2.34845e-06 -2.39066e-05 -0.00186022 -9.23801e-05 -0.00320048 0.004 364.278 19.953 
776 1 1 0.00520387 -0.0354368 0.00395027 0 0 0 -1.90768e-06 9.85268e-06 1.62066e-05 -3.50949e-06 7.75561e-06 6.9069e-07 -0.00142057 0.000732261 -0.00040635 0.004 648.167 -12.0273 
410 1 1 0.0130236 -0.0368131 0.00392576 0 0 0 -2.54071e-06 7.56921e-06 1.50448e-05 3.69615e-06 -7.16313e-07 -4.70579e-06 -0.00103697 0.00101022 0.000485136 0.004 760.282 -15.7518 
282 1 1 0.025876 -0.0381319 0.00388528 0 0 0 -4.22785e-06 -1.32914e-06 2.55701e-06 -8.81009e-06 4.54265e-06 -5.13944e-06 0.000848794 -0.000684386 0.000698229 0.004 798.122 -2.03186 
682 1 1 -0.0302016 -0.0348779 0.00393465 0 0 0 -2.45216e-07 2.61274e-06 3.89187e-06 7.13227e-07 -2.88781e-06 -1.58981e-06 0.00012225 -0.000550009 0.000805905 0.004 300.548 0.690925 
251 1 1 -0.0224189 -0.0338476 0.00392334 0 0 0 3.75543e-06 7.48139e-06 1.22793e-05 4.86675e-07 -9.89356e-06 2.25819e-06 -0.000535734 -0.000908953 -0.000335837 0.004 303.727 3.44369 
770 1 1 -0.0020475 -0.0321408 0.00393967 0 0 0 -3.05283e-06 7.31689e-06 2.13796e-05 -9.47552e-06 1.29827e-05 -3.76829e-06 0.000960929 -0.00274865 0.00217117 0.004 498.321 23.0964 
883 1 1 0.018166 -0.0307535 0.00390027 0 0 0 -6.1632e-06 6.47183e-06 1.24903e-05 -8.87744e-06 1.24148e-05 -4.52601e-06 -0.000861155 -0.00123343 -0.000719394 0.004 787.195 -8.1213 
838 1 1 0.0320336 -0.033109 0.00396074 0 0 0 -5.57714e-06 5.17664e-07 8.1857e-06 -7.58186e-06 3.80771e-06 -4.9406e-06 0.00166228 -0.00073255 0.000986789 0.004 799.654 -0.473354 
617 1 1 -0.0372521 -0.0271215 0.00391646 0 0 0 -2.68921e-06 6.39985e-07 1.00355e-06 7.57723e-07 -3.02387e-07 -1.28606e-06 -0.000547683 -0.000621249 0.000476145 0.004 300.025 0.0463009 
824 1 1 -0.0292998 -0.0270298 0.00392983 0 0 0 -4.1022e-06 -4.53738e-07 7.32983e-06 8.78197e-06 -8.06611e-07 1.63427e-07 0.000214218 -0.00113881 -6.92712e-05 0.004 300.188 0.283057 
571 1 1 -0.0202614 -0.0262215 0.00393284 0 0 0 3.24964e-06 8.52164e-06 1.55195e-05 -3.91342e-06 -1.82873e-07 5.57593e-06 -0.000347707 0.000344932 0.00297963 0.004 302.86 2.80673 
861 1 1 -0.00959289 -0.0297304 0.00389701 0 0 0 7.06921e-06 1.44183e-05 2.16212e-05 -1.50838e-05 -5.08996e-06 -4.6344e-06 -0.000512155 0.00148288 -0.00292502 0.004 350.537 20.7612 
434 1 1 0.0103455 -0.0293807 0.00393746 0 0 0 -6.36799e-06 1.10005e-05 1.64035e-05 -3.8017e-06 -4.33056e-06 -1.02564e-06 -0.0002231 0.000129366 -0.000301432 0.004 741.073 -18.9683 
103 1 1 0.0311547 -0.0252347 0.00394364 0 0 0 2.04077e-06 7.17369e-06 8.91667e-06 9.17245e-07 4.51338e-06 -1.22381e-05 -0.00145731 0.00133901 -0.00355372 0.004 799.655 -0.427923 
769 1 1 -0.041344 -0.0202818 0.0039823 0 0 0 -2.85592e-06 6.79635e-07 -4.38258e-06 -1.07946e-06 -1.65994e-06 -2.84544e-06 -0.00081977 0.000424594 3.88686e-05 0.004 300.005 0.0109422 
94 1 1 -0.0333714 -0.0202163 0.00394368 0 0 0 -5.4158e-06 -1.72452e-07 -1.70059e-06 3.91738e-07 -3.75879e-06 3.10905e-06 -0.00100498 -0.00165289 -2.86485e-06 0.004 300.076 0.121391 
40 1 1 -0.025401 -0.0201464 0.0039176 0 0 0 -4.697e-06 -2.6176e-06 9.50603e-06 -6.28902e-07 6.06374e-06 3.7524e-06 -0.0010435 -0.00238351 -0.000671209 0.004 300.695 0.850396 
19 1 1 -0.00865064 -0.0218804 0.00393968 0 0 0 1.47353e-05 1.32309e-05 2.53503e-05 -2.77912e-05 -5.34598e-06 -1.77484e-06 -0.000414276 0.000994507 0.000459452 0.004 347.7 20.759 
442 1 1 -0.000436887 -0.0218499 0.00393587 0 0 0 1.24284e-05 2.4677e-05 2.33421e-05 -2.58478e-05 -1.67034e-05 -4.53611e-06 -0.0033692 0.00225352 0.000346536 0.004 489.858 28.2923 
259 1 1 0.00753198 -0.0220001 0.00392513 0 0 0 7.30951e-06 2.28093e-05 9.45057e-06 -2.36386e-05 -2.30216e-05 1.21887e-05 -0.00429719 0.00188498 -0.0033477 0.004 707.227 -15.8776 
512 1 1 0.0153883 -0.0232356 0.00397837 0 0 0 -1.36867e-07 9.13018e-06 1.27308e-05 -1.18964e-05 3.7172e-06 1.90586e-06 -0.000377268 -0.00132451 -0.00103765 0.004 778.674 -10.251 
470 1 1 0.0232616 -0.0243589 0.00390819 0 0 0 -2.3606e-06 8.09792e-06 1.40014e-05 -4.11376e-06 1.17972e-05 -1.22157e-05 -0.00103134 -3.0127e-05 0.00129685 0.004 797.174 -2.42143 
451 1 1 0.0390293 -0.0244875 0.00392049 0 0 0 6.86195e-07 -3.18886e-06 -4.7938e-07 -1.44072e-06 1.73557e-06 -5.53642e-06 0.000360204 -8.05672e-05 -0.000225524 0.004 799.956 -0.0712302 
531 1 1 -0.0164595 -0.0192004 0.00396124 0 0 0 -4.82185e-06 1.11422e-05 1.4329e-05 -1.44073e-05 1.36393e-05 6.98904e-06 -0.00198291 -0.00171338 -0.00321039 0.004 305.408 4.04454 
229 1 1 0.0202059 -0.0169136 0.0038688 0 0 0 8.84762e-06 1.31859e-05 1.99403e-05 -1.01457e-05 -1.5127e-06 -7.48712e-06 -0.00199807 0.00121607 -0.000997474 0.004 794.793 -4.28906 
734 1 1 0.0280521 -0.017942 0.003944 0 0 0 1.94846e-05 1.71691e-05 1.06595e-05 -7.07317e-07 1.02435e-05 -1.98419e-05 -0.00192297 0.0044426 0.00163424 0.004 799.364 -0.735925 
635 1 1 0.0425981 -0.0174495 0.00392192 0 0 0 1.95153e-06 -1.5546e-06 2.72791e-06 -4.39705e-06 9.04285e-06 -7.10566e-06 0.00127284 0.000373259 0.000249078 0.004 799.996 -0.00797732 
87 1 1 -0.0448224 -0.0104639 0.00391419 0 0 0 -6.91664e-07 4.59065e-07 5.63174e-07 -2.76181e-06 7.27647e-06 7.73867e-07 -0.00049537 -0.000144932 0.000436231 0.004 300.001 0.00160959 
406 1 1 -0.0373951 -0.013391 0.00396014 0 0 0 -5.3772e-07 -3.46413e-06 -5.99933e-06 -3.96991e-06 -2.62398e-06 3.51661e-06 0.000905747 0.000870875 -0.000933955 0.004 300.007 0.0147175 
224 1 1 -0.023058 -0.0126019 0.00387959 0 0 0 2.15989e-06 -9.45974e-06 5.8634e-06 -3.72066e-06 8.48211e-06 2.38511e-06 0.0010642 0.00112071 0.000348999 0.004 302.603 2.37496 
751 1 1 -0.0102996 -0.0141545 0.00396946 0 0 0 4.52048e-06 1.0766e-05 1.17903e-05 -1.29302e-05 4.63656e-06 -3.71592e-07 -0.00325622 -4.75306e-05 0.00175503 0.004 339.526 15.2567 
622 1 1 -0.00273382 -0.0117409 0.00388526 0 0 0 8.99746e-07 1.5336e-05 1.54227e-05 -9.07816e-06 -1.42551e-05 -1.00872e-06 -0.00588809 -0.00297511 -0.000488955 0.004 467.735 11.4321 
128 1 1 0.00951073 -0.010685 0.00388464 0 0 0 1.36445e-05 1.83285e-05 1.6835e-05 -1.56637e-05 -1.33363e-05 -1.10171e-05 -0.00175022 0.000206958 -0.00631167 0.004 752.557 -17.0703 
68 1 1 0.0262808 -0.0102109 0.00395441 0 0 0 1.83144e-05 1.12475e-05 1.85797e-05 -1.14664e-05 -5.08084e-06 -6.13941e-06 1.67087e-05 0.00258519 0.000876918 0.004 799.68 -0.431682 
791 1 1 0.0340945 -0.0118532 0.00392801 0 0 0 3.30902e-05 2.19623e-05 -1.20393e-05 -2.63699e-05 7.62281e-06 -7.33946e-07 -0.00328606 0.00796195 0.00576009 0.004 799.977 -0.0407663 
354 1 1 -0.0380748 -0.00550395 0.00392039 0 0 0 -6.27407e-06 -6.35528e-06 -4.51748e-06 1.41544e-06 -1.43988e-06 7.57233e-06 0.000493903 -0.00172969 0.00127304 0.004 300.008 0.0153013 
725 1 1 -0.03049 -0.0080053 0.00392518 0 0 0 -2.30391e-07 -2.29343e-06 2.04089e-06 -8.9118e-06 -1.94403e-06 3.28957e-06 -0.00129939 8.81118e-05 0.002473 0.004 300.067 0.107116 
353 1 1 -0.0161287 -0.00879808 0.00391142 0 0 0 -2.74976e-06 -4.35956e-06 7.65555e-06 3.06019e-06 8.59536e-06 2.64524e-06 0.00263735 -0.000662213 0.0020648 0.004 313.901 8.53812 
391 1 1 -0.00857657 -0.00639746 0.00391357 0 0 0 2.33953e-06 4.93362e-06 5.66857e-06 5.20982e-06 -3.38353e-06 1.9332e-06 0.00161965 0.00225065 -0.000161655 0.004 359.606 20.1579 
683 1 1 0.0173534 -0.00945625 0.00390989 0 0 0 1.86928e-05 1.30091e-05 1.52263e-05 -1.28448e-05 -2.21662e-06 -1.24267e-05 -0.00215144 0.00286786 0.00437687 0.004 791.823 -5.76141 
690 1 1 0.0385537 -0.00520142 0.00390023 0 0 0 2.47483e-05 1.62378e-05 -2.28871e-06 -4.27262e-05 1.81032e-06 -5.50572e-06 -0.00181441 0.00546223 -0.00574541 0.004 799.994 -0.011662 
10 1 1 0.0449636 -0.00990887 0.00397399 0 0 0 2.21792e-06 5.53456e-06 -4.4215e-06 -1.85374e-05 -5.95158e-07 2.6991e-06 -0.00421509 -0.000275402 0.000108535 0.004 799.999 -0.00153804 
402 1 1 -0.046017 -0.00264172 0.00392181 0 0 0 -4.0496e-06 -9.0703e-07 -3.09829e-06 8.39755e-07 1.67977e-06 -2.64828e-07 -0.000121158 -9.84656e-05 8.83996e-05 0.004 300.002 0.00412002 
761 1 1 -0.0294744 -0.000168323 0.00392558 0 0 0 -9.45513e-06 -7.23578e-06 -3.38755e-06 -8.95738e-07 -5.4488e-07 1.43334e-05 0.0009181 -0.00131549 -0.000409287 0.004 300.311 0.407316 
293 1 1 -0.0229324 -0.00466872 0.00395946 0 0 0 -9.31564e-06 -1.04586e-05 2.93754e-06 1.83526e-06 4.28079e-06 6.37958e-06 0.000491777 -0.00230309 0.000962993 0.004 301.854 1.87358 
384 1 1 -0.0147391 -0.000860017 0.0039815 0 0 0 -0.000883549 0.000686052 4.96111e-11 -6.63112e-15 5.14905e-15 -1.16832e-09 -0.171911 -0.221399 0.233621 0.004 300 0 
378 1 1 0.00130614 -0.00490402 0.00392907 0 0 0 7.96468e-06 1.47457e-05 4.50246e-06 -6.63085e-06 -1.5608e-05 5.9122e-06 -0.00319874 0.00112934 0.00327862 0.004 607.097 -24.4214 
390 1 1 0.0103707 -0.00276527 0.00396889 0 0 0 1.82776e-05 1.38888e-05 1.10752e-05 -2.77609e-05 -7.1497e-06 -1.1971e-05 -0.000897484 0.00186965 0.00679372 0.004 781.469 -12.0853 
411 1 1 0.0223604 -0.00329283 0.00397628 0 0 0 2.45069e-05 1.41868e-05 1.7608e-05 -1.8314e-05 -2.65061e-06 -8.22994e-06 0.000407805 0.000655086 -0.00519672 0.004 798.912 -1.16103 
342 1 1 0.0307348 -0.00361664 0.00397531 0 0 0 1.99059e-05 3.12418e-05 1.64836e-05 -3.04982e-05 9.06896e-06 -1.94092e-05 -0.0028614 0.0023869 0.00252074 0.004 799.974 -0.0455634 
262 1 1 0.0460221 -0.00206506 0.00395833 0 0 0 -3.40155e-06 3.65704e-06 2.18983e-07 -7.28648e-06 1.85054e-05 -3.35894e-06 0.00260863 -0.000296884 0.000436817 0.004 799.999 -0.00131077 
261 1 1 -0.0398214 0.00224601 0.00393473 0 0 0 -6.82452e-06 -4.68129e-06 -4.12287e-06 -1.51998e-06 -5.31375e-07 7.44787e-06 0.000374854 -0.000543509 -0.000879783 0.004 300.02 0.0326324 
666 1 1 -0.0045467 0.00045145 0.00395603 0 0 0 1.16067e-06 2.79382e-07 5.22254e-06 -3.48032e-06 -4.34732e-06 6.14986e-06 -2.64599e-05 0.00198579 0.000111075 0.004 422.899 19.9411 
815 1 1 0.00434375 0.00243564 0.00392712 0 0 0 3.61601e-06 6.19232e-06 2.2319e-06 -2.3646e-05 -1.91207e-05 3.45187e-06 -0.000118908 -0.00264609 -0.0033847 0.004 706.148 -28.5268 
306 1 1 0.0163701 0.00247671 0.00395812 0 0 0 2.81447e-05 1.00652e-05 1.17268e-05 -3.65468e-05 -5.13892e-06 -7.78491e-06 7.30108e-05 0.00304559 -0.00888454 0.004 796.762 -3.02855 
178 1 1 0.0241042 0.00444178 0.00386117 0 0 0 2.46197e-05 1.41374e-05 1.46644e-05 -2.47907e-05 -2.64573e-06 -1.30994e-05 -0.00286182 0.00383918 0.00691249 0.004 799.192 -0.951376 
862 1 1 0.0320657 0.0042337 0.003931 0 0 0 1.34355e-05 3.5545e-05 -3.24079e-07 -1.61544e-05 -8.6827e-07 -3.05214e-05 -0.00622134 0.00255655 -0.00138614 0.004 799.924 -0.117526 
661 1 1 0.0398756 0.0029147 0.00394682 0 0 0 2.63214e-07 1.41545e-05 5.95858e-06 -1.03973e-05 1.34191e-05 -1.51978e-05 -0.000969363 -0.00144574 -0.00351549 0.004 799.994 -0.0121782 
677 1 1 -0.0453782 0.0078854 0.0039364 0 0 0 -3.37881e-06 -1.45944e-06 -2.28478e-06 -1.20098e-07 8.04586e-07 2.33905e-06 0.000234431 -0.000319071 9.33318e-05 0.004 300.002 0.00371339 
12 1 1 -0.0333161 0.00671961 0.00393692 0 0 0 -7.68289e-06 -6.37149e-06 -2.66137e-06 -6.51089e-06 -4.68135e-07 1.04811e-05 0.000836688 -0.000738679 -2.78309e-05 0.004 300.171 0.225378 
420 1 1 -0.0253999 0.0066484 0.00392683 0 0 0 -1.08007e-05 -9.88309e-06 1.30389e-06 -1.04494e-05 -2.44225e-06 7.10062e-06 0.00155555 -0.00105278 -0.000898526 0.004 301.504 1.45843 
654 1 1 -0.0175134 0.00720949 0.00387207 0 0 0 -1.53484e-05 -5.9514e-06 2.89281e-06 -1.48978e-05 -2.71457e-06 1.35415e-05 7.85524e-05 -0.00187815 0.00109695 0.004 309.561 6.10829 
145 1 1 -0.004544 0.0083654 0.0038631 0 0 0 -1.09395e-05 -5.24385e-06 8.73602e-08 -1.92738e-05 -7.13099e-06 3.13544e-07 -0.000866729 -0.00238135 0.0012385 0.004 415.541 19.0117 
624 1 1 0.0451449 0.00890653 0.00390657 0 0 0 1.882e-06 3.98937e-06 6.31311e-06 -9.89041e-06 1.72381e-05 2.08907e-07 -0.000276059 0.000619656 0.000967129 0.004 799.998 -0.00323598 
613 1 1 -0.0372991 0.0135339 0.00384341 0 0 0 -9.23969e-06 -4.5878e-06 -5.58273e-06 -3.61467e-06 1.23901e-06 7.09764e-06 0.000314067 -0.00206302 0.000366856 0.004 300.027 0.0448314 
265 1 1 -0.0293062 0.0135429 0.0039637 0 0 0 -1.02514e-05 -5.87594e-06 -1.01417e-07 -9.84989e-06 -1.24107e-06 5.25699e-06 -7.50203e-05 -0.000824834 0.000446227 0.004 300.3 0.396624 
273 1 1 -0.0213694 0.0141274 0.00392936 0 0 0 -1.41777e-05 -6.31114e-06 -7.82623e-07 -1.68799e-05 -3.23484e-06 8.7871e-06 0.000830975 -0.00159146 -0.000898884 0.004 301.789 1.82978 
492 1 1 -0.0114499 0.0123713 0.00398077 0 0 0 -1.67914e-05 -4.91242e-06 -3.67207e-06 -1.44142e-05 -9.92719e-06 6.72456e-06 -0.00109115 -0.000557752 -0.000334437 0.004 321.889 12.0286 
234 1 1 0.00585291 0.010393 0.00392891 0 0 0 -5.18694e-06 -5.85191e-07 8.42143e-06 -1.80003e-05 -1.65679e-05 -3.08616e-06 -0.00177724 -0.000562106 -0.00165263 0.004 666.676 -21.6606 
160 1 1 0.0142843 0.0106357 0.00390959 0 0 0 5.4836e-06 2.0193e-06 7.36332e-06 -1.57352e-05 -8.47761e-06 -4.39902e-06 -0.000567702 6.31754e-05 -0.00203865 0.004 781.305 -11.428 
484 1 1 0.0220893 0.0120739 0.00390121 0 0 0 2.95955e-06 6.23153e-06 8.45963e-06 -1.09599e-05 -8.40001e-06 -4.68699e-06 -0.00104953 0.000540704 0.0016689 0.004 797.181 -2.61254 
743 1 1 0.0300184 0.0126216 0.00398127 0 0 0 5.23135e-06 4.18161e-05 1.19565e-05 -3.34601e-06 1.63436e-06 -2.34094e-06 -0.0110855 0.000379802 0.00564593 0.004 799.635 -0.474777 
514 1 1 0.0379536 0.0130186 0.00386906 0 0 0 2.48919e-06 1.69992e-05 9.45399e-06 -3.08467e-06 7.8994e-06 -4.73437e-06 -0.003001 -3.27036e-05 -0.0082073 0.004 799.963 -0.0604505 
530 1 1 -0.0159002 0.0198648 0.00392793 0 0 0 -1.41462e-05 -3.3077e-06 -2.85337e-06 -1.25474e-05 -4.63933e-06 5.23686e-06 7.84916e-06 -0.00149072 0.00055494 0.004 305.638 5.03211 
227 1 1 -0.00736499 0.0192084 0.00396593 0 0 0 -1.50184e-05 -8.73017e-06 -1.16355e-05 -1.54035e-05 -1.35126e-05 3.27519e-06 -0.000155192 -0.0026026 -0.000587174 0.004 355.182 21.2537 
392 1 1 -0.000498577 0.0151514 0.00394446 0 0 0 -1.42197e-05 -5.81383e-06 -3.69386e-06 -2.31371e-05 -7.74607e-06 -2.98372e-06 -0.000336551 -0.00176877 0.00168633 0.004 483.046 17.0511 
493 1 1 0.00985842 0.0172532 0.00394647 0 0 0 -4.3431e-06 -3.64427e-06 1.0651e-06 -1.06604e-05 -1.01021e-05 8.21854e-07 6.28696e-05 -0.000603683 0.00283776 0.004 733.074 -21.3403 
34 1 1 0.0176357 0.0187853 0.00394099 0 0 0 -4.28271e-06 6.82983e-06 6.5977e-07 -4.86294e-06 -1.39272e-05 4.70707e-06 -0.00154971 -0.000668663 0.00137735 0.004 785.548 -9.28622 
206 1 1 0.0255397 0.0192353 0.00396992 0 0 0 -2.63841e-06 1.04239e-05 6.6697e-07 -1.73699e-06 -1.04871e-05 5.11598e-06 -0.000211307 -0.000231319 -0.000459793 0.004 797.938 -2.01957 
104 1 1 0.0334175 0.0199347 0.0038965 0 0 0 2.89369e-06 4.80396e-06 5.11204e-06 1.29757e-06 -4.02744e-06 -9.23038e-08 -0.00165272 0.00045309 -0.000619946 0.004 799.752 -0.330654 
809 1 1 -0.0412058 0.0204949 0.00395496 0 0 0 -3.85304e-06 -1.97985e-06 -3.32856e-06 -2.22699e-06 1.83065e-06 1.55303e-06 0.000734862 -0.000168765 -0.000579104 0.004 300.003 0.0053799 
773 1 1 -0.0331523 0.0204531 0.00393519 0 0 0 -1.0041e-05 -3.46324e-06 -5.19938e-06 -6.1322e-06 -8.12356e-07 5.5495e-06 0.00105491 -0.00216832 -0.000842733 0.004 300.071 0.115569 
792 1 1 0.00347679 0.0219736 0.00392106 0 0 0 -8.90763e-06 -7.68388e-06 -4.78924e-06 -7.03447e-06 -1.25492e-05 -4.56141e-06 0.00049916 -0.00122587 -0.00261226 0.004 617.717 -12.3594 
718 1 1 0.0413199 0.0203659 0.00392988 0 0 0 2.2313e-06 1.29584e-06 1.81731e-06 -8.17597e-07 2.57452e-06 2.75034e-06 3.64563e-05 0.000601443 0.000427951 0.004 799.974 -0.0446841 
101 1 1 -0.0371146 0.0272995 0.003904 0 0 0 -5.66898e-06 6.03003e-07 -4.90269e-06 -5.85324e-07 -1.91055e-06 3.65354e-06 -0.000505957 -0.000669691 0.000140553 0.004 300.02 0.0373469 
246 1 1 -0.0290567 0.0272807 0.00398269 0 0 0 -7.37183e-06 4.62424e-08 -3.23238e-06 -6.60184e-06 -1.15152e-06 2.61155e-07 -0.000194022 0.0013388 -4.00182e-05 0.004 300.183 0.244568 
331 1 1 -0.0212281 0.0257799 0.00390015 0 0 0 -1.60798e-05 -1.98745e-06 -1.02797e-05 -1.10637e-05 -4.84641e-06 5.84441e-06 -0.0001804 -0.0022402 -0.000362212 0.004 302.454 2.31862 
846 1 1 -0.0134708 0.0274169 0.00397477 0 0 0 -2.00473e-05 2.31353e-06 -9.73185e-06 -1.01758e-05 1.49542e-07 8.25507e-06 -0.00199703 -0.00180802 0.00145999 0.004 317.531 10.4347 
348 1 1 -0.00329914 0.0260612 0.00393373 0 0 0 -1.25272e-05 -6.0103e-06 -8.5548e-06 -1.1304e-05 -1.16547e-05 -1.25882e-07 0.000946797 -0.00147031 0.00288607 0.004 457.676 15.2034 
786 1 1 0.00840353 0.0281551 0.00389684 0 0 0 -9.12465e-06 -1.44882e-06 -7.86199e-06 5.29178e-06 -1.90637e-05 7.72169e-07 -0.000366563 0.000134207 0.00390236 0.004 718.583 -23.6916 
316 1 1 0.0162833 0.0272929 0.00390629 0 0 0 -1.05782e-05 5.50073e-07 -2.67109e-06 1.28026e-05 -8.12934e-06 9.67789e-06 0.000492012 -0.00280812 -0.00308743 0.004 784.363 -9.42376 
495 1 1 0.0288861 0.0264618 0.00396716 0 0 0 1.54615e-06 6.10073e-06 -2.06387e-06 8.54178e-06 -5.72832e-06 -2.29136e-07 -0.00107925 -0.00010506 -7.94419e-05 0.004 799.595 -0.54158 
863 1 1 0.0367263 0.0277633 0.00392936 0 0 0 1.71328e-06 9.96323e-07 -1.52065e-07 4.5353e-06 -3.71911e-06 2.45798e-06 -0.000160574 0.000104394 -0.000480679 0.004 799.962 -0.0660785 
511 1 1 -0.00761836 0.0327132 0.00388551 0 0 0 -1.66361e-05 -1.4946e-06 -1.03424e-05 4.11852e-06 -8.75922e-06 4.5925e-06 -0.000734288 -0.00301649 -0.00272838 0.004 386.947 25.0774 
722 1 1 0.00164031 0.0322875 0.00396635 0 0 0 -1.28372e-05 -5.16156e-06 -7.63402e-06 1.17579e-05 -1.25521e-05 1.82254e-06 -0.000339184 -0.000818813 -0.00215263 0.004 610.902 -21.4162 
2 1 1 0.0229311 0.031696 0.00396244 0 0 0 -1.55234e-06 1.97496e-06 -2.59427e-06 2.19882e-05 -2.14952e-06 -6.06635e-07 -0.000687375 0.00026021 0.000829091 0.004 797.747 -2.30928 
254 1 1 0.0305473 0.0343722 0.0039815 0 0 0 -0.000818632 0.000870518 -1.20202e-10 1.24459e-14 -1.32356e-14 -2.27117e-10 -0.218134 -0.205132 -0.0703935 0.004 800 0 
257 1 1 -0.0296322 0.0352231 0.00395612 0 0 0 -4.89528e-06 3.6187e-06 -6.53812e-06 1.37203e-06 -1.35484e-06 4.09307e-06 -0.000876896 0.000163733 -4.15162e-05 0.004 300.102 0.157763 
582 1 1 -0.0157655 0.0356206 0.00393203 0 0 0 -3.75463e-06 -1.9363e-05 -8.34402e-06 9.65009e-06 -3.24346e-05 -2.33877e-06 0.00577942 -3.72503e-05 -0.00421381 0.004 302.806 2.60588 
255 1 1 -0.00267126 0.038932 0.00391145 0 0 0 -4.93765e-06 -4.87237e-06 -5.4995e-06 1.23449e-05 -6.68538e-06 5.83544e-06 0.00159991 -0.000651867 -0.000394016 0.004 475.738 13.8255 
887 1 1 0.00812082 0.0373183 0.00392888 0 0 0 -7.99156e-06 -4.11507e-07 -4.99367e-06 2.00216e-05 -6.7478e-06 1.01687e-06 0.00052281 -0.00218274 -0.00142624 0.004 764.995 -17.1521 
719 1 1 0.0157852 0.0351951 0.00398362 0 0 0 -4.22955e-06 -9.58453e-07 -7.48315e-07 1.41643e-05 -2.01996e-06 3.64604e-06 0.000142881 0.000313017 0.0010706 0.004 792.774 -6.09343 
21 1 1 0.0234243 0.0396338 0.00391497 0 0 0 -2.10118e-06 -3.69894e-07 -1.18908e-06 1.05105e-05 -3.78825e-06 -1.84005e-06 0.000432222 -4.5387e-05 9.35057e-05 0.004 798.196 -1.86412 
325 1 1 -0.0222388 0.0402984 0.0039395 0 0 0 -4.44921e-07 -8.20113e-07 -2.75004e-06 9.90405e-06 -5.78754e-06 5.62386e-06 0.00032259 -0.00100829 -0.000413683 0.004 301.331 1.37487 
595 1 1 -0.014931 0.0435393 0.00398252 0 0 0 3.82871e-06 -5.35256e-06 4.52219e-06 1.20474e-05 -1.09038e-05 9.9502e-06 -0.000888463 0.000483817 0.00124519 0.004 313.819 7.3331 
568 1 1 0.0162912 0.0430934 0.00392629 0 0 0 -3.67561e-06 -5.65107e-07 -7.44402e-07 9.2872e-06 -8.06704e-07 -2.17547e-06 0.000245522 -0.000572205 -0.000616922 0.004 788.52 -7.75593 
387 1 1 -0.00719691 0.045487 0.00389931 0 0 0 1.0094e-06 -4.04595e-07 -8.45718e-07 5.48623e-06 -4.21191e-06 6.09242e-06 -0.00015977 0.000552909 -9.55396e-05 0.004 400.474 20.7418 
852 1 1 0.000758886 0.0460615 0.00397616 0 0 0 -1.40017e-06 -1.77903e-06 -8.39159e-07 3.47675e-06 -2.58418e-06 2.56256e-06 9.86721e-05 0.000315336 -9.22669e-05 0.004 607.336 -25.4268 
157 1 1 0.00865317 0.0452493 0.00389824 0 0 0 -2.97898e-06 1.42394e-07 -2.16124e-06 6.01244e-06 -5.32631e-06 1.15337e-06 0.000126967 -0.000670347 0.000114593 0.004 744.41 -20.4478 
400 1 1 -0.024752 -0.0387964 0.00974419 0 0 0 4.71663e-06 6.6394e-06 1.04035e-05 2.0218e-06 -1.72386e-05 -8.76934e-06 0.000577493 0.000807721 -0.000163984 0.004 300.813 1.03295 
606 1 1 -0.000653883 -0.0387266 0.008139 0 0 0 5.92925e-06 1.34705e-05 3.02216e-05 -1.94764e-05 3.92693e-06 -3.2473e-05 -0.002189 0.000343128 0.00277221 0.004 514.538 15.2043 
724 1 1 -0.0339143 -0.0311598 0.00984801 0 0 0 -1.87885e-06 1.98939e-06 6.18737e-06 6.28286e-06 1.63967e-06 -7.87049e-06 0.00041021 -0.000650622 0.000259732 0.004 300.1 0.156202 
183 1 1 0.0251947 -0.0311656 0.00751479 0 0 0 -4.84874e-06 1.0758e-06 1.23722e-05 -1.57945e-05 2.19076e-05 -1.35204e-05 1.34222e-05 0.00108998 -0.00163673 0.004 798.08 -1.88468 
544 1 1 -0.0140217 -0.0253028 0.00874964 0 0 0 1.06399e-05 2.31368e-05 3.32052e-05 -2.00937e-05 -1.69733e-05 2.40842e-06 -0.000533718 -0.00166936 -0.00010302 0.004 318.207 11.0748 
29 1 1 -0.00450618 -0.0263793 0.00900733 0 0 0 1.68722e-05 3.25951e-05 4.45036e-05 -3.21169e-05 -1.0921e-05 -6.38669e-06 -0.00362501 -0.00303848 0.00259192 0.004 390.765 28.0477 
248 1 1 0.00349905 -0.0278426 0.00763314 0 0 0 -8.7166e-07 1.70697e-05 4.94739e-05 -2.00802e-06 8.56949e-06 -4.62226e-06 0.00254149 0.00494861 -0.00126371 0.004 656.781 -23.2589 
79 1 1 0.035837 -0.0289489 0.00959647 0 0 0 7.39752e-07 7.03515e-06 1.25904e-05 -2.37966e-06 1.5107e-06 -8.47922e-06 -0.00380795 0.00428272 -0.00132298 0.004 799.894 -0.168994 
291 1 1 -0.00458859 -0.0173974 0.00909527 0 0 0 2.50941e-05 2.26173e-05 4.34863e-05 -4.05996e-05 -2.46882e-05 -3.59375e-06 0.00148737 0.00679001 0.00508816 0.004 457.175 13.2028 
891 1 1 0.00373498 -0.015528 0.00632512 0 0 0 1.57497e-05 3.13659e-05 2.50785e-05 -2.41117e-05 -2.43443e-05 1.81705e-06 0.00145589 0.00620882 0.0036861 0.004 632.775 -14.1011 
870 1 1 0.0138324 -0.0156363 0.00831026 0 0 0 -1.29009e-06 2.56999e-05 3.46859e-05 -2.85551e-05 -1.90831e-05 -2.13028e-05 -0.00434152 -0.000996289 0.000996608 0.004 780.125 -11.9843 
777 1 1 0.034969 -0.018778 0.00771001 0 0 0 3.92321e-05 2.23901e-05 -1.06261e-05 4.14973e-06 5.97449e-06 -2.60986e-05 -0.00401578 0.00191294 -0.00943724 0.004 799.937 -0.095721 
837 1 1 -0.029449 -0.0146727 0.00803322 0 0 0 -1.72109e-06 -6.73528e-06 5.39627e-06 -3.20594e-06 5.97502e-06 4.81952e-06 0.00217416 -0.000683279 -0.00302018 0.004 300.36 0.451527 
445 1 1 -0.0181358 -0.0138493 0.0099527 0 0 0 1.54883e-05 5.04521e-06 1.79073e-05 -1.64994e-05 -8.74948e-06 9.08667e-06 0.00144827 -0.00184795 0.00814875 0.004 308.381 5.66658 
783 1 1 0.00485911 -0.00860647 0.00993774 0 0 0 2.28775e-05 3.59929e-05 2.42043e-05 -3.42537e-05 -4.29495e-05 4.9162e-06 -0.000717574 -0.000466753 -0.002219 0.004 681.259 -26.0648 
615 1 1 -0.0350999 -0.000758695 0.00955174 0 0 0 -1.47866e-05 -1.38319e-05 -7.05127e-06 -1.04749e-06 -1.96968e-06 2.09425e-05 0.000933609 0.000282882 -0.000305002 0.004 300.063 0.0964639 
476 1 1 -0.0459522 0.0026214 0.00988976 0 0 0 -4.68029e-06 -2.02586e-06 -4.0667e-06 2.80727e-06 9.89767e-07 4.02072e-07 3.01221e-05 8.22622e-05 0.000185299 0.004 300.001 0.00134038 
16 1 1 -0.0210455 0.00169441 0.00830917 0 0 0 -2.03737e-05 -1.65842e-05 3.23188e-06 -4.48691e-06 4.36357e-06 1.95902e-05 0.000641195 0.000368672 0.000553193 0.004 303.383 3.02988 
303 1 1 0.0459492 0.00350466 0.00962657 0 0 0 4.60764e-06 1.05645e-05 1.04041e-05 -1.62151e-05 -1.072e-07 -1.14211e-05 -0.000905365 0.00204103 -0.00261731 0.004 799.999 -0.00212749 
523 1 1 -0.0389797 0.00803082 0.00932854 0 0 0 -1.28965e-05 -7.63392e-06 -8.9263e-06 -3.31352e-06 1.02774e-07 1.70559e-05 -0.00022618 -0.000929212 0.000346594 0.004 300.017 0.0292717 
704 1 1 -0.0107979 0.00519226 0.00743854 0 0 0 -2.14997e-05 -7.18773e-06 3.68505e-06 -1.97454e-05 -9.2069e-06 1.16646e-05 0.000428429 0.00058645 -0.000729298 0.004 341.376 14.6066 
454 1 1 0.00101192 0.00715937 0.00933954 0 0 0 -6.4579e-06 -1.07174e-05 9.33144e-06 -3.09268e-05 5.10584e-06 6.71337e-06 0.00649647 0.000791987 0.00236919 0.004 559.611 -5.81478 
31 1 1 0.0102166 0.00547599 0.00832594 0 0 0 1.36552e-05 8.4662e-06 1.39448e-05 -4.24068e-05 -2.50299e-05 -3.15018e-06 -0.000799646 0.00326281 0.00437662 0.004 748.105 -19.3845 
135 1 1 0.0188887 0.00749176 0.00960787 0 0 0 3.44195e-05 -2.29601e-07 2.5645e-05 -4.58961e-05 -6.16739e-06 -1.24784e-05 0.00346487 -0.00103269 0.00948159 0.004 797.907 -2.14281 
712 1 1 0.0281139 0.00743276 0.00998858 0 0 0 2.62039e-05 2.52691e-05 2.34935e-05 -2.40269e-05 -2.51522e-05 -3.36397e-05 0.00796247 0.00186903 0.00234719 0.004 799.705 -0.401228 
210 1 1 0.0394934 0.0081461 0.00989881 0 0 0 -5.58948e-09 2.05048e-05 1.99535e-05 -3.17111e-05 2.60147e-06 -1.32731e-05 -0.00012101 0.00185928 0.00092761 0.004 799.993 -0.0139343 
651 1 1 -0.0437987 0.0143398 0.00823563 0 0 0 -6.54459e-06 -2.71077e-06 -6.04877e-06 -9.61745e-07 2.14477e-06 7.00295e-06 -6.45788e-05 0.000843231 -0.000525777 0.004 300.003 0.00621354 
621 1 1 0.0437182 0.0147846 0.00900765 0 0 0 4.30523e-06 9.72459e-06 7.48647e-06 -5.82975e-06 3.55932e-08 2.06614e-06 -0.00274988 0.000680702 -0.0019486 0.004 799.985 -0.0261319 
726 1 1 -0.0257657 0.0199972 0.00692821 0 0 0 -1.78716e-05 -3.73447e-06 -5.63298e-06 -1.41285e-05 -4.13417e-06 7.71859e-06 -0.00180475 0.00107562 0.00168621 0.004 300.517 0.656508 
230 1 1 -0.00847462 0.0245951 0.00973772 0 0 0 -2.30827e-05 -1.04709e-05 -2.44771e-05 -2.28254e-05 -2.20227e-05 5.45151e-06 0.00165659 -0.00240269 -0.00589126 0.004 370.403 22.3579 
320 1 1 -0.0017126 0.0204051 0.00979385 0 0 0 -3.0855e-05 -2.78739e-05 -1.52316e-05 -3.02821e-05 -1.49885e-05 -8.14134e-06 0.00139769 -0.0014259 0.000902192 0.004 454.305 26.9033 
7 1 1 0.0129211 0.0224304 0.00918517 0 0 0 -1.49904e-05 2.64194e-06 -7.37662e-06 5.10429e-06 -1.79216e-05 7.10385e-06 -0.00244642 0.00325623 0.0030322 0.004 768.506 -14.6219 
83 1 1 0.0214164 0.0239652 0.00888424 0 0 0 -5.38091e-06 4.23116e-06 1.7903e-06 1.11355e-05 -1.88437e-05 1.47775e-05 -0.00154185 0.00308926 0.00311534 0.004 796.954 -2.80705 
747 1 1 -0.0337321 0.0313835 0.00974068 0 0 0 -7.9552e-06 4.74127e-06 -1.58223e-05 3.32358e-06 -3.41217e-06 1.26608e-05 0.000826688 0.00264769 0.000519078 0.004 300.136 0.20399 
51 1 1 -0.0226192 0.0329655 0.00703447 0 0 0 -1.38546e-05 -1.81535e-06 -1.34444e-05 8.02906e-07 -1.06613e-05 8.43793e-06 0.000796631 -0.000694804 -0.00295997 0.004 300.556 0.707733 
116 1 1 -0.00940737 0.0391204 0.00809812 0 0 0 -9.57028e-06 -4.77268e-06 -1.18905e-05 1.95112e-05 -1.44262e-05 1.56482e-05 0.00372162 -0.0018121 -0.00313682 0.004 364.622 24.5813 
205 1 1 -0.000560411 -0.0460776 0.0110172 0 0 0 7.45189e-06 9.41758e-06 2.11329e-05 -1.47745e-05 -2.14603e-07 -2.96237e-05 0.00450417 -0.00710232 -0.000828376 0.004 447.293 34.966 
836 1 1 0.00737988 -0.0454688 0.0106611 0 0 0 1.27067e-05 6.88575e-06 2.41808e-05 6.07022e-07 4.40477e-07 -8.68554e-06 0.00257237 0.00453932 -0.00275919 0.004 686.398 -21.4254 
486 1 1 -0.0156916 -0.0402432 0.0103352 0 0 0 1.49001e-05 1.03758e-05 1.02528e-05 -1.05255e-05 -3.16269e-05 -3.1306e-05 0.00283955 0.00125829 0.00252568 0.004 309.2 6.83629 
311 1 1 -0.00836802 -0.0439882 0.0106791 0 0 0 -5.82448e-06 -5.67808e-06 2.45473e-05 -5.46347e-05 9.03744e-06 -2.21861e-05 -0.00294929 0.000373063 0.000180513 0.004 323.709 13.8506 
447 1 1 0.0180551 -0.0423881 0.0118323 0 0 0 5.5617e-06 1.20976e-05 2.61562e-05 -1.12472e-06 7.84549e-06 -5.49256e-06 0.00158235 0.00480727 -0.00255053 0.004 783.469 -10.2979 
538 1 1 -0.0295743 -0.0353509 0.0149849 0 0 0 3.51055e-06 1.34977e-06 1.25565e-05 7.5557e-06 -7.42052e-06 -6.69459e-06 0.00125667 -0.00131922 0.00135773 0.004 300.443 0.552408 
279 1 1 0.0111551 -0.0385417 0.0114153 0 0 0 1.72027e-06 1.46218e-05 4.18351e-05 -4.19038e-06 4.42717e-06 -2.90665e-05 -0.000200631 -0.00112289 0.00376732 0.004 739.557 -18.8954 
110 1 1 0.0250464 -0.0386627 0.0117242 0 0 0 4.59037e-06 8.53626e-06 2.46221e-06 -1.36594e-06 8.07501e-06 -7.40293e-06 -0.00355247 0.0040439 -0.000286572 0.004 796.579 -3.23445 
188 1 1 -0.0179041 -0.0321006 0.0101564 0 0 0 8.23542e-06 1.83286e-05 2.72686e-05 -5.27562e-06 -1.90462e-05 4.37387e-06 -0.000140667 0.0012389 0.000223562 0.004 307.884 6.30362 
810 1 1 -0.01026 -0.0344509 0.0102037 0 0 0 9.69619e-06 2.48985e-05 2.92145e-05 -1.55987e-05 -1.50354e-05 -8.31748e-06 0.000508308 -0.000408785 0.000744154 0.004 343.64 16.8226 
412 1 1 -0.00316736 -0.0328805 0.0133527 0 0 0 7.91564e-06 3.02767e-05 5.09663e-05 -2.88441e-05 -6.30463e-06 -8.23355e-06 0.00272368 -0.00202399 -0.000847576 0.004 445.771 14.1144 
545 1 1 0.00452061 -0.0343087 0.0121943 0 0 0 -2.63462e-06 1.59052e-05 4.78641e-05 -2.36305e-05 2.46725e-06 -2.25122e-05 0.00259729 -0.000453024 -0.00134405 0.004 641.762 -13.0179 