ITEM: TIMESTEP
1600
ITEM: NUMBER OF ATOMS
891
ITEM: BOX BOUNDS mm mm mm
-0.05 0.05
-0.05 0.05
0 0.15
ITEM: ATOMS id type type x y z ix iy iz vx vy vz fx fy fz omegax omegay omegaz radius f_Temp[0] f_heatFlux[0] 
199 1 1 -0.00900047 -0.0453212 0.00407177 0 0 0 0.0307913 0.0266105 0.0297844 0.120658 0.753946 0.00430661 4.34499 -19.4443 -7.60603 0.004 300 0 
560 1 1 0.017048 -0.0418307 0.0043982 0 0 0 0.0703191 0.244422 0.00942657 0 0 -0.0210391 35.6073 17.9085 -10.8877 0.004 300 0 
850 1 1 0.000168242 -0.039756 0.00391886 0 0 0 0.00378783 -0.177812 0.0333716 -0.00527603 0.0230728 0.10303 12.38 -5.06048 5.05652 0.004 300 0 
186 1 1 0.0088844 -0.0423681 0.0054708 0 0 0 -0.0481101 -0.157126 0.141007 0 0 -0.0210391 15.2156 8.09731 7.02452 0.004 300 0 
776 1 1 0.00336744 -0.0311538 0.00403424 0 0 0 -0.0648141 -0.0277929 0.0466421 0 0 -0.0210391 0.908031 -12.7271 5.89095 0.004 300 0 
883 1 1 0.0163518 -0.0321286 0.00418166 0 0 0 0.0480274 -0.1048 0.109112 0 0 -0.0210391 10.3546 10.8584 -5.97744 0.004 300 0 
838 1 1 0.0288252 -0.0359436 0.00398413 0 0 0 -0.117927 0.154458 -0.0579598 0.402407 -0.0787964 -0.301059 -4.42488 0.311486 12.3315 0.004 300 0 
682 1 1 -0.0331646 -0.0320073 0.00410692 0 0 0 0.275329 0.0484138 -0.106455 0.0646156 0.0670635 -0.017845 -9.36907 1.68104 -19.2863 0.004 300 0 
251 1 1 -0.0233741 -0.031882 0.0042048 0 0 0 -0.0324232 -0.293028 0.105228 0 0 -0.0210391 8.277 -13.4255 -2.75468 0.004 300 0 
88 1 1 -0.00695749 -0.0320572 0.00395052 0 0 0 0.14181 -0.17137 0.261503 0.168705 -0.00173542 -0.434272 20.4171 -1.00855 -10.5934 0.004 300 0 
451 1 1 0.0357462 -0.0255665 0.00495324 0 0 0 0.131792 -0.0276969 -0.0716985 0 0 -0.0210391 -13.8433 18.0939 -0.0923222 0.004 300 0 
861 1 1 -0.00910693 -0.023619 0.004015 0 0 0 -0.142172 -0.0415212 0.00442628 0.0419922 0.0165584 -0.0239384 10.4318 -5.8563 7.83333 0.004 300 0 
512 1 1 0.0125069 -0.0220865 0.00393566 0 0 0 0.241161 -0.0313373 -0.0888915 -0.00902429 0.00197719 0.163728 -4.61143 3.67968 -4.02812 0.004 300 0 
470 1 1 0.02079 -0.0225471 0.00412344 0 0 0 0.0456164 -0.0638098 -0.0501189 0 0 -0.0210391 5.74683 -1.39578 -10.0536 0.004 300 0 
824 1 1 -0.0238966 -0.0226901 0.00401723 0 0 0 -0.00374645 -0.0985564 0.0866428 0.0394507 0.0556993 -0.26898 17.5191 -9.66028 6.0146 0.004 300 0 
259 1 1 0.00435962 -0.0212672 0.00417663 0 0 0 0.129077 -0.23242 -0.0951401 -0.137347 0.192019 -0.197112 -13.7799 7.31156 2.29805 0.004 300 0 
734 1 1 0.0275792 -0.0164032 0.00403275 0 0 0 0.0521999 0.0732335 0.0869661 0.0813633 -0.151035 -0.0741071 -2.50504 12.989 -15.6287 0.004 300 0 
635 1 1 0.0400765 -0.017689 0.00423112 0 0 0 0.130883 -0.112091 0.0277761 0 0 -0.0210391 -9.63596 24.2166 -1.07587 0.004 300 0 
224 1 1 -0.0222562 -0.0100037 0.0038634 0 0 0 -0.19406 0.140928 0.162948 -0.0729802 0.0971926 -0.0257176 9.31419 -4.15581 -3.54587 0.004 300 0 
751 1 1 -0.00865491 -0.0126424 0.00391923 0 0 0 0.0828727 -0.153562 0.0664526 0.0557091 -0.0484821 0.0582942 21.2562 -0.616847 -6.97732 0.004 300 0 
683 1 1 0.0125195 -0.0127132 0.0040199 0 0 0 0.165402 -0.20268 0.151578 0.103931 0.0210826 -0.0382696 -1.57725 -2.85231 -18.9486 0.004 300 0 
354 1 1 -0.0396622 -0.00426525 0.00389145 0 0 0 -0.155949 0.155852 -0.0452348 -0.187489 -0.276613 0.280141 -9.07081 -39.0316 -9.37505 0.004 300 0 
68 1 1 0.019389 -0.00704528 0.00397332 0 0 0 0.0283358 0.0209758 0.0443901 -0.0434183 0.464165 -0.244876 5.8048 4.00898 -4.60815 0.004 300 0 
10 1 1 0.0393617 -0.00949812 0.00475078 0 0 0 0.306874 -0.101638 0.00708319 0 0 -0.0210391 1.17254 6.91433 -2.46662 0.004 300 0 
761 1 1 -0.0259932 -0.00213869 0.00418726 0 0 0 -0.148618 0.106275 -0.289201 0.15491 0.0606612 -1.17587 3.13175 9.76261 22.3601 0.004 300 0 
384 1 1 -0.00970475 -0.00177248 0.00406973 0 0 0 0.00238697 -0.043309 0.011026 0 0 -0.0210391 -0.0860869 4.91135 -6.42658 0.004 300 0 
815 1 1 0.0030167 -0.00230374 0.00385628 0 0 0 -0.00159827 0.0724692 -0.105038 -0.0194003 -0.29665 -0.0666529 3.14946 -15.574 -1.1246 0.004 300 0 
306 1 1 0.0133156 -0.00192166 0.00393985 0 0 0 -0.0429273 -0.0308518 0.0308716 -0.0283292 0.00399855 0.0839768 1.06864 -4.8408 3.15111 0.004 300 0 
261 1 1 -0.0348567 0.00188867 0.00478055 0 0 0 0.025891 -0.0443664 0.251212 0.187166 0.260232 0.00546486 8.91023 -4.10664 2.78385 0.004 300 0 
145 1 1 -0.00416147 0.00492606 0.00415332 0 0 0 -0.153533 0.243394 0.0124749 0.145912 -0.259329 -0.954746 -14.0016 -10.93 5.97732 0.004 300 0 
178 1 1 0.0208247 0.00306897 0.00422902 0 0 0 0.051956 0.0727002 -0.0741843 -0.402734 0.226339 -0.510613 2.63661 15.7447 -9.3346 0.004 300 0 
862 1 1 0.028601 0.00251278 0.00379715 0 0 0 0.0672949 0.174574 -0.0648448 0.527184 0.250186 0.247322 9.6976 0.126865 17.2466 0.004 300 0 
661 1 1 0.0386561 0.00346381 0.00424026 0 0 0 0.157166 0.0131848 -0.0115715 0 0 -0.0210391 -32.1057 28.2881 5.49434 0.004 300 0 
613 1 1 -0.0320366 0.00989394 0.00423807 0 0 0 -0.242909 0.0320361 -0.0572446 0.00835194 0.0615571 -0.145448 3.00652 -2.38174 1.94258 0.004 300 0 
420 1 1 -0.0217569 0.00571502 0.00395948 0 0 0 -0.0463149 -0.141788 -0.0151913 -0.225537 -0.425189 -0.258942 5.26353 -14.7483 10.6078 0.004 300 0 
160 1 1 0.0105536 0.00554127 0.00407137 0 0 0 0.0451283 0.0110647 -0.422585 0.189163 0.0685396 -0.126003 7.14836 -9.60831 1.19229 0.004 300 0 
677 1 1 -0.0429297 0.0109695 0.00437411 0 0 0 -0.32727 -0.166369 -0.246779 0 0 -0.0210391 -26.9115 -0.483623 -10.673 0.004 300 0 
392 1 1 0.00104327 0.0114362 0.00393552 0 0 0 -0.0762779 -0.0035276 -0.0652479 -0.222235 0.7501 -0.246828 18.7898 6.75886 -3.84371 0.004 300 0 
743 1 1 0.0231246 0.0121464 0.00425246 0 0 0 0.132108 -0.0183984 -0.108134 -0.0425418 -0.252573 -0.0150737 12.3061 -11.7153 -15.1548 0.004 300 0 
514 1 1 0.0309538 0.0108134 0.00424271 0 0 0 0.233103 0.00531924 -0.0229331 -0.0305458 0.0029281 -0.0897592 -14.9053 1.29624 10.5015 0.004 300 0 
101 1 1 -0.0365257 0.0204292 0.00394468 0 0 0 -0.160584 0.0257684 -0.0145594 -0.119554 -0.148388 0.0795124 -3.85039 -10.4334 3.22888 0.004 300 0 
773 1 1 -0.0269458 0.0189803 0.00402821 0 0 0 -0.174566 0.0233762 0.0669713 0 0 -0.0210391 0.440241 -1.40298 0.857242 0.004 300 0 
530 1 1 -0.0161417 0.0157193 0.00408963 0 0 0 -0.127107 -0.011191 -0.175207 -0.0664246 0.0055161 -0.175353 5.85979 9.68857 0.938567 0.004 300 0 
206 1 1 0.0155727 0.0175354 0.00419783 0 0 0 0.39848 -0.304834 0.0963416 -0.051584 0.0277036 -0.266216 5.91085 9.19225 13.0799 0.004 300 0 
846 1 1 -0.0111541 0.0218869 0.00402389 0 0 0 -0.0567817 0.0224142 0.066868 -0.103242 0.0314506 -0.197896 6.54413 -2.64346 -13.8225 0.004 300 0 
348 1 1 -0.000584607 0.0195903 0.00407323 0 0 0 0.0852717 -0.111668 0.0874106 0 0 -0.0210391 -2.93411 6.00336 -0.616328 0.004 300 0 
495 1 1 0.023192 0.0200231 0.0039392 0 0 0 0.283023 -0.0922432 -0.128292 0.25437 0.0397236 -0.166628 -6.14446 0.754193 -3.73004 0.004 300 0 
254 1 1 0.0340478 0.0271295 0.00461841 0 0 0 0.248209 0.258163 0.30249 0 0 -0.0210391 -19.4602 25.3405 -1.18881 0.004 300 0 
246 1 1 -0.0313485 0.0263029 0.00495798 0 0 0 -0.135027 0.0248844 0.0291279 0.100787 0.132443 -0.0260165 -37.1094 -10.5996 -2.30449 0.004 300 0 
2 1 1 0.0232396 0.0283457 0.0039724 0 0 0 0.15811 0.0910534 -0.0280544 -0.0023474 -0.000945834 0.0295766 -10.9308 10.103 6.70033 0.004 300 0 
257 1 1 -0.0293207 0.0351118 0.00407866 0 0 0 -0.324685 0.296192 -0.041321 0 0 -0.0210391 -6.70461 3.53949 10.7724 0.004 300 0 
511 1 1 -0.00676639 0.0288123 0.0039807 0 0 0 -0.19958 0.196802 -0.301198 0.00651305 -0.00290261 0.121572 -15.0645 26.8122 19.3169 0.004 300 0 
887 1 1 0.00739937 0.0343003 0.00399173 0 0 0 0.0642614 0.170308 0.056538 -0.0233992 0.00366738 -0.0634207 -17.2252 17.4557 -12.1754 0.004 300 0 
568 1 1 0.0199284 0.0415307 0.00383768 0 0 0 -0.0234519 0.0950791 0.283332 -0.0396994 0.106293 -0.0220866 -18.6929 -4.25431 8.65116 0.004 300 0 
387 1 1 -0.00985155 0.0450199 0.00404526 0 0 0 -0.0116762 0.339424 -0.104792 0.0737295 -0.395238 -0.00527914 7.12933 5.1466 1.07372 0.004 300 0 
852 1 1 -0.000889894 0.0456824 0.00413497 0 0 0 -0.0849715 0.307137 -0.00604535 0 0 -0.0210391 0.398214 17.027 -2.39814 0.004 300 0 
873 1 1 -0.019716 -0.041282 0.00395825 0 0 0 0.134163 0.00460627 0.0869902 0.0362016 -0.158616 -0.267959 9.85483 -6.66584 -3.0793 0.004 300 0 
102 1 1 -0.0156327 -0.0344986 0.00554606 0 0 0 -0.101308 -0.159889 0.288348 -0.0953473 -0.0491198 -0.131063 19.3832 -27.5726 2.22159 0.004 300 0 
103 1 1 0.0269873 -0.0277987 0.00523546 0 0 0 0.158013 -0.0564534 -0.483652 0 0 -0.0210391 -4.15978 5.39753 -2.95871 0.004 300 0 
571 1 1 -0.0164652 -0.0266523 0.00414721 0 0 0 -0.0970494 -0.19176 -0.428275 -0.125358 -0.0844969 -0.401934 -3.86301 14.6151 -5.5346 0.004 300 0 
814 1 1 0.0159175 -0.0267456 0.0103667 0 0 0 -0.052264 -0.0644129 0.203006 0 0 -0.0210391 7.71157 6.58836 8.56374 0.004 300 0 
531 1 1 -0.0167326 -0.015568 0.0050018 0 0 0 0.00191732 -0.0436253 -0.531582 0.323518 0.278882 -0.4095 -2.82991 1.06005 1.97292 0.004 300 0 
442 1 1 -0.00524057 -0.0182251 0.00868735 0 0 0 0.00526004 -0.197128 -0.15278 -0.232565 0.0760236 -1.30942 -21.4881 4.09299 13.2401 0.004 300 0 
229 1 1 0.0205358 -0.0141628 0.00690068 0 0 0 0.00415255 -0.139894 -0.107179 -0.0203292 -0.543839 0.206636 11.9538 5.44124 3.00557 0.004 300 0 
406 1 1 -0.0381631 -0.0122627 0.00399968 0 0 0 -0.281558 0.209332 0.0089652 3.80651e-05 -4.95265e-05 -0.0222884 16.0608 -17.8245 -14.1686 0.004 300 0 
94 1 1 -0.029711 -0.0161408 0.00455058 0 0 0 -0.207366 -0.106294 -0.347367 0 0 -0.0210391 -25.7228 -16.5607 -3.55867 0.004 300 0 
128 1 1 0.004957 -0.0129098 0.00638419 0 0 0 0.0506374 -0.194269 -0.190473 -0.0143599 -0.126002 -0.00808761 -8.36929 -12.0838 4.11433 0.004 300 0 
725 1 1 -0.0312593 -0.00817074 0.00413212 0 0 0 -0.11827 0.0188163 0.102536 0.0157035 0.0995318 -0.553777 10.1761 -27.4465 -7.25551 0.004 300 0 
622 1 1 -0.00145246 -0.00906572 0.00374086 0 0 0 0.000817987 -0.0111808 -0.0500166 -0.0546875 -0.0072075 1.09211 3.94064 8.99303 -3.95674 0.004 300 0 
791 1 1 0.0307915 -0.00914124 0.00406815 0 0 0 0.0926323 -0.0455952 0.0813492 0.0425471 0.106344 -0.0245098 -20.2203 -0.50925 18.8182 0.004 300 0 
293 1 1 -0.0190909 -0.00333152 0.00812994 0 0 0 -0.16794 -0.0162178 -0.194993 0.0268917 -0.331523 -0.172356 0.178406 4.57824 -2.18429 0.004 300 0 
402 1 1 -0.0461121 0.000285002 0.0052268 0 0 0 -0.150681 0.0088046 0.231261 0.412066 -0.00373208 -0.0416091 -0.984746 -34.8458 0.616718 0.004 300 0 
12 1 1 -0.0281695 0.00448784 0.0085873 0 0 0 -0.153408 0.0146169 -0.0426535 0.0566863 -0.0599146 -0.00265734 -11.9326 1.72248 -7.24816 0.004 300 0 
654 1 1 -0.0141808 0.00746245 0.00507434 0 0 0 -0.271317 -0.0445916 -0.263125 0.405073 0.0832283 0.0569446 -0.65647 14.3709 -5.93916 0.004 300 0 
234 1 1 0.00332438 0.00477953 0.00714016 0 0 0 0.129842 0.043031 -0.421324 0.0178034 -0.307156 0.730798 -4.44736 16.8426 -1.50981 0.004 300 0 
712 1 1 0.0244797 0.00647093 0.0103956 0 0 0 0.155732 0.00059393 0.0508017 0.0281014 0.0298527 0.0269186 -7.48307 -17.1778 0.319203 0.004 300 0 
227 1 1 -0.00676931 0.0146061 0.00524438 0 0 0 -0.11316 0.0152925 -0.241473 0 0 -0.0210391 7.49061 3.64421 -7.73066 0.004 300 0 
34 1 1 0.00884639 0.0132206 0.00581653 0 0 0 0.00401163 0.0564942 -0.224943 0 0 -0.0210391 -2.31956 4.55139 -4.8714 0.004 300 0 
718 1 1 0.0422338 0.0159606 0.00375728 0 0 0 0.411552 0.0952104 -0.197445 -0.0568981 -0.00915713 1.13157 -10.0863 16.3001 2.09038 0.004 300 0 
104 1 1 0.0320893 0.019166 0.00539448 0 0 0 0.136532 0.202552 -0.299908 0 0 -0.0210391 -24.7339 9.46581 -2.65374 0.004 300 0 
331 1 1 -0.0189825 0.0237945 0.00450093 0 0 0 -0.24702 0.0711706 0.0709587 0 0 -0.0210391 -14.15 8.97747 -0.361859 0.004 300 0 
722 1 1 0.00554614 0.024833 0.00452116 0 0 0 0.0790042 -0.0619998 -0.296 0 0 -0.0210391 7.34355 4.7792 -6.05759 0.004 300 0 
582 1 1 -0.0136004 0.0281956 0.00857731 0 0 0 -0.102884 0.364442 -0.104819 0 0 -0.0210391 -14.9916 -5.7622 2.38584 0.004 300 0 
719 1 1 0.0139186 0.0280749 0.00408627 0 0 0 -0.230033 0.312317 -0.142205 0 0 -0.0210391 5.05547 24.7054 -6.24971 0.004 300 0 
325 1 1 -0.0186054 0.0325515 0.00384997 0 0 0 -0.159482 -0.246682 0.0468199 0.00893142 0.0209961 0.435297 -3.01763 -12.6155 4.83008 0.004 300 0 
116 1 1 -0.00871615 0.0368326 0.00595537 0 0 0 0.0817683 0.214602 -0.458293 0 0 -0.0210391 1.97816 -29.5919 5.6615 0.004 300 0 
255 1 1 -0.000214411 0.0330185 0.00608902 0 0 0 -0.00710329 0.0933272 -0.332854 -0.0138732 -0.00367416 -0.00714874 -13.0296 14.2824 32.5959 0.004 300 0 
21 1 1 0.0277466 0.036809 0.00536635 0 0 0 -0.209725 -0.114937 -0.461202 -0.0691696 -0.0942614 -0.0153908 4.62969 -12.2253 3.26562 0.004 300 0 
157 1 1 0.00687403 0.0423818 0.00428292 0 0 0 0.0671443 0.244458 0.202369 0 0 -0.0210391 -15.5128 3.18287 5.24128 0.004 300 0 
205 1 1 0.00199813 -0.0438364 0.0105162 0 0 0 -0.0282979 -0.38057 -0.146794 0.00953705 -0.0209865 0.0169151 -14.8076 -18.9377 -17.6832 0.004 300 0 
485 1 1 -0.0118437 -0.0400617 0.0101981 0 0 0 0.182721 -0.269813 -0.332346 0 0 -0.0210391 -24.8078 -4.64696 3.32793 0.004 300 0 
311 1 1 -0.00258734 -0.0361032 0.0104456 0 0 0 0.0516822 -0.08866 0.0691452 -0.00585086 0.00649342 -0.00854748 -5.24142 -6.54363 3.26623 0.004 300 0 
447 1 1 0.0178828 -0.0418022 0.0125213 0 0 0 -0.085691 0.194518 0.135865 0 0 -0.0210391 13.0219 -9.05747 7.03735 0.004 300 0 
400 1 1 -0.0210197 -0.0374914 0.010721 0 0 0 -0.234282 -0.138307 0.0556635 -0.0260099 0.139967 0.242347 -6.48627 19.8353 14.189 0.004 300 0 
410 1 1 0.0108339 -0.033742 0.00986392 0 0 0 -0.0764277 -0.0464148 -0.0399055 0.000315106 0.00211446 -0.0223702 -6.05499 -11.8141 -6.58331 0.004 300 0 
282 1 1 0.0227988 -0.0344658 0.00874135 0 0 0 0.147729 -0.156407 -0.0170701 -0.307076 0.114005 0.114673 13.9146 -2.83753 12.271 0.004 300 0 
724 1 1 -0.027876 -0.0266754 0.00955068 0 0 0 -0.362971 -0.0487783 -0.11589 -0.0691533 -0.12596 0.151041 -29.1407 10.8533 -3.29099 0.004 300 0 
770 1 1 -0.00218275 -0.0255516 0.00783723 0 0 0 0.134179 -0.199737 -0.336151 -0.0353774 0.0377443 -0.0592862 -20.2348 6.26536 7.14698 0.004 300 0 
434 1 1 0.00798914 -0.0261641 0.00919662 0 0 0 -0.0225281 0.0742407 -0.104164 0.137347 -0.192019 0.155033 -10.6086 -8.86262 -4.94522 0.004 300 0 
617 1 1 -0.0371175 -0.0251343 0.00835476 0 0 0 -0.209521 -0.149245 -0.193277 0 0 -0.0210391 -3.64802 -4.40873 -0.186497 0.004 300 0 
891 1 1 0.00244802 -0.0194347 0.0119194 0 0 0 0.0412609 -0.0864288 0.00266555 0.0932395 -0.195165 -0.0233761 -30.6159 -32.0702 6.76435 0.004 300 0 
40 1 1 -0.0204695 -0.0195993 0.0105146 0 0 0 -0.0351378 0.111645 -0.426047 -0.22399 -0.312306 0.522082 -19.8812 -3.5811 3.75383 0.004 300 0 
870 1 1 0.0107432 -0.0172123 0.0106616 0 0 0 0.0150436 -6.82123e-05 -0.0565264 0.0987624 -0.107132 -0.135516 -17.6625 -15.2366 1.73817 0.004 300 0 
777 1 1 0.0312059 -0.0208145 0.0100176 0 0 0 0.23576 -0.265314 -0.108296 0 0 -0.0210391 19.642 13.1681 -5.97599 0.004 300 0 
418 1 1 0.04197 -0.0176873 0.0130419 0 0 0 0.27178 -0.180045 0.075509 0 0 -0.0210391 -1.64283 2.0476 11.5677 0.004 300 0 
87 1 1 -0.042043 -0.00705432 0.0114016 0 0 0 -0.495023 -0.0326424 -0.081672 0 0 -0.0210391 3.04443 -5.21811 3.68794 0.004 300 0 
353 1 1 -0.0133475 -0.00878723 0.00900129 0 0 0 -0.197913 -0.0683548 -0.139498 -0.0103812 0.00464076 -0.0712786 -20.3952 -28.5962 -4.14255 0.004 300 0 
332 1 1 0.0193052 -0.00825848 0.012038 0 0 0 -0.0652335 -0.0976046 -0.0624666 -0.0110465 0.0778164 0.0473456 1.03644 -19.3455 -0.188444 0.004 300 0 
666 1 1 -0.00279967 -0.000331912 0.00997867 0 0 0 -0.0634404 0.0327651 -0.456117 0.0180678 -0.0835245 -0.306613 17.8944 11.6747 -10.9577 0.004 300 0 
378 1 1 0.00326919 -0.0064184 0.0105393 0 0 0 0.0370008 0.163823 -0.182329 0.131362 0.343973 0.252219 9.43677 -8.16998 -14.8941 0.004 300 0 
411 1 1 0.0189657 0.000501126 0.0113581 0 0 0 -0.0045992 0.177414 -0.0795567 -0.10878 -0.272893 0.344934 -12.5077 -27.9788 -17.8305 0.004 300 0 
690 1 1 0.0255309 -0.0034906 0.00776539 0 0 0 0.105772 -0.0565353 -0.236199 -0.121691 -0.298902 -0.0802305 1.89933 -7.07925 14.0036 0.004 300 0 
262 1 1 0.0410061 -0.00221932 0.00944815 0 0 0 0.249908 0.0651917 -0.0966967 0 0 -0.0210391 31.1247 -8.48339 -8.23281 0.004 300 0 
704 1 1 -0.0109464 0.00090378 0.011518 0 0 0 -0.039326 0.205747 -0.116706 0.0501005 -0.144495 -0.411029 -9.78803 -8.12081 -1.09245 0.004 300 0 
523 1 1 -0.0345156 0.00823448 0.0116135 0 0 0 -0.204961 0.0341956 -0.202566 0.0232689 -0.736478 0.153777 -9.21747 -8.21105 6.13557 0.004 300 0 
16 1 1 -0.0199213 0.00370152 0.0115069 0 0 0 -0.0324353 -0.196854 0.0893519 -0.0216527 0.443068 -0.0477087 8.74426 -5.96993 -8.74547 0.004 300 0 
492 1 1 -0.0058673 0.0074743 0.0112711 0 0 0 -0.0529458 0.166865 -0.396244 -0.161757 0.315836 0.794196 -10.378 41.379 0.960902 0.004 300 0 
624 1 1 0.037131 0.0101784 0.00918341 0 0 0 0.215245 0.209042 -0.0228353 0.099793 -0.0250054 0.0295602 3.74552 -9.91283 -6.07614 0.004 300 0 
265 1 1 -0.024841 0.0118702 0.00766613 0 0 0 -0.0893475 -0.0104329 -0.255472 -0.180048 0.345663 0.213619 -25.7022 15.2313 8.05249 0.004 300 0 
273 1 1 -0.0154665 0.0129458 0.0114506 0 0 0 -0.0463898 0.159097 -0.0369322 -0.0108218 0.0316302 0.0596701 4.25266 4.25732 7.80189 0.004 300 0 
484 1 1 0.0162224 0.00983783 0.00771607 0 0 0 -0.0353004 -0.175421 -0.280651 0.0146758 0.0121794 -0.0119896 0.548335 -15.6534 5.27626 0.004 300 0 
809 1 1 -0.0373308 0.0153376 0.0101044 0 0 0 -0.178508 -0.0817951 -0.159982 -0.201069 0.585322 -0.156637 5.62822 18.1849 -5.52054 0.004 300 0 
637 1 1 -0.0129732 0.0209271 0.0120374 0 0 0 -0.147424 0.0513885 -0.285237 0.0142589 -0.014352 -0.0284856 21.2307 -10.5338 10.6277 0.004 300 0 
803 1 1 0.0248817 0.0182951 0.0116604 0 0 0 0.115481 -0.138434 0.158936 0.000739284 0.000984903 -0.0211413 14.3341 -20.1858 3.29365 0.004 300 0 
230 1 1 -0.0056405 0.0230971 0.00957613 0 0 0 -0.0868136 0.0166293 -0.302587 0.0662326 -0.144231 -1.21653 -16.9814 11.223 -3.41886 0.004 300 0 
786 1 1 0.0102041 0.0207786 0.00997515 0 0 0 -0.137835 -0.0405472 -0.215863 -0.00294302 0.00176085 -0.0221225 -16.159 -14.9916 -1.92534 0.004 300 0 
316 1 1 0.0187897 0.023949 0.00902553 0 0 0 0.111826 0.151107 -0.148218 -0.28335 0.190926 0.309251 -1.05964 -19.8611 -4.18257 0.004 300 0 
747 1 1 -0.036399 0.0284101 0.0108183 0 0 0 -0.236527 0.187505 -0.110241 0.640153 -0.507764 0.0193098 -5.69562 2.57688 -4.0657 0.004 300 0 
263 1 1 -0.0259061 0.030031 0.00939343 0 0 0 -0.0546821 0.24641 -0.0680195 0.0245603 0.015316 -5.3412e-05 10.0677 12.8638 -5.44607 0.004 300 0 
729 1 1 0.0120424 0.0330895 0.0103672 0 0 0 0.045166 0.0723855 -0.0569683 0.0234307 -0.00426862 0.00930123 22.2982 8.28087 0.258504 0.004 300 0 
26 1 1 0.0193679 0.0362791 0.00961657 0 0 0 0.0289322 0.00496034 0.107982 -0.0290839 -0.285612 0.327803 -28.3895 5.07953 11.295 0.004 300 0 
231 1 1 -0.00522253 -0.0427225 0.0146624 0 0 0 -0.300709 -0.249128 -0.0797081 0 0 -0.0210391 8.28099 -1.7488 -7.66478 0.004 300 0 
836 1 1 0.0100705 -0.040627 0.0138182 0 0 0 0.0930736 -0.25495 -0.216753 -0.000315106 -0.00211446 -0.0197081 -1.77314 12.3505 -4.44183 0.004 300 0 
538 1 1 -0.0244054 -0.0315648 0.0148216 0 0 0 -0.170459 -0.0639925 0.123554 -0.0330139 0.0446463 -0.0383086 -11.815 -0.857051 0.666058 0.004 300 0 
810 1 1 -0.0105073 -0.0317703 0.0109456 0 0 0 -0.0497135 0.00124328 -0.0233669 0.578845 0.371578 -0.241532 -10.3958 -16.5695 -4.88485 0.004 300 0 
248 1 1 0.00186135 -0.0298896 0.0131285 0 0 0 -0.0487835 -0.167556 -0.1251 0.0336286 -0.0336389 0.0179103 8.43892 -10.3156 -3.70513 0.004 300 0 
183 1 1 0.0248613 -0.0277205 0.0130652 0 0 0 0.146465 0.125058 -0.354981 -0.314532 -0.29718 -0.611127 14.0983 2.23561 -8.89742 0.004 300 0 
79 1 1 0.0330335 -0.0281751 0.0138555 0 0 0 0.235742 -0.236425 -0.365619 0 0 -0.0210391 3.83329 9.51133 1.97987 0.004 300 0 
769 1 1 -0.0313867 -0.0205721 0.0140469 0 0 0 -0.241897 -0.166436 -0.2034 -0.147737 -0.127447 -0.109205 -8.79559 -9.67701 16.973 0.004 300 0 
544 1 1 -0.0147055 -0.0249749 0.011538 0 0 0 0.167184 0.0319405 -0.0308116 -0.131157 0.123819 -0.226431 -5.53887 15.3626 -5.57256 0.004 300 0 
29 1 1 -0.00644443 -0.0221256 0.0152031 0 0 0 -0.127938 -0.0726782 -0.425209 -0.0840068 -0.533966 0.958873 -1.91584 -16.3693 4.60263 0.004 300 0 
673 1 1 -0.0382057 -0.0171779 0.0113409 0 0 0 -0.384637 -0.113096 0.0933753 0 0 -0.0210391 16.9276 6.43306 14.494 0.004 300 0 
19 1 1 -0.0126897 -0.0164382 0.0120539 0 0 0 -0.0473072 0.0626902 -0.328597 0 0 -0.0210391 1.72752 4.08989 12.3997 0.004 300 0 
309 1 1 0.0218008 -0.0202862 0.0120102 0 0 0 0.111949 -0.119854 -0.537249 -0.00299858 -0.00217041 -0.0230703 8.10573 -15.4043 -3.78358 0.004 300 0 
837 1 1 -0.031161 -0.00981625 0.0117612 0 0 0 0.175288 -0.254332 -0.0342675 0.0771557 -0.127477 0.408667 -5.24925 -0.436716 -8.98124 0.004 300 0 
291 1 1 -0.00127588 -0.012501 0.0121341 0 0 0 -0.251243 -0.0859346 -0.10722 -0.0142094 0.24717 0.370889 -7.81686 -0.346671 5.57713 0.004 300 0 
390 1 1 0.0110458 -0.00800279 0.0102893 0 0 0 -0.0356602 0.559203 -0.212252 0.135264 -0.0522973 -0.0472849 -13.9714 -2.01728 -0.381088 0.004 300 0 
589 1 1 0.0311837 -0.00976685 0.0122168 0 0 0 0.000712005 0.0373501 0.201074 0.138716 0.110695 -1.24326 -13.1605 -1.46993 -4.11771 0.004 300 0 
437 1 1 -0.0210177 -0.0115538 0.0114559 0 0 0 0.198026 -0.101889 0.149986 0.162969 0.0594176 0.143864 22.3353 2.72657 -8.97139 0.004 300 0 
391 1 1 -0.00750736 -0.00566324 0.0140829 0 0 0 -0.0743779 -0.0369662 -0.281807 0.0706892 -0.0291158 -0.0678422 13.0395 26.951 -5.60429 0.004 300 0 
840 1 1 0.0390975 -0.00914877 0.0132525 0 0 0 0.225553 -0.035899 -0.255568 0 0 -0.0210391 27.6669 -11.9912 -5.04549 0.004 300 0 
615 1 1 -0.0266694 -0.00270919 0.011793 0 0 0 -0.0350063 0.0480507 -0.224636 -0.15491 -0.0606612 1.13379 9.23466 19.0833 -10.6779 0.004 300 0 
31 1 1 0.0117325 0.00077983 0.0147666 0 0 0 -0.0531614 0.206575 -0.105495 0.0546095 -0.169418 0.0498235 -5.98688 1.39881 3.82988 0.004 300 0 
706 1 1 0.0247044 -0.00322936 0.0155654 0 0 0 0.262677 0.13895 -0.0585209 -0.038219 -0.00213321 0.261531 -10.1009 22.8701 5.90303 0.004 300 0 
493 1 1 0.00910944 0.00763849 0.0118846 0 0 0 -0.36396 0.160874 -0.152888 0.374679 0.253991 -0.243454 2.14268 -25.5159 10.9172 0.004 300 0 
342 1 1 0.0312934 0.00104672 0.0110032 0 0 0 0.0643676 -0.0437226 0.171334 0.114598 -0.045347 0.258868 6.34544 2.55808 0.773827 0.004 300 0 
636 1 1 -0.0257647 0.00735175 0.0157336 0 0 0 -0.108064 0.220898 -0.104717 -0.0138285 0.0186333 -0.0330762 1.18034 -23.1438 -7.37034 0.004 300 0 
292 1 1 -0.0136124 0.00676128 0.0159815 0 0 0 0.297361 -0.0623805 -0.0423016 -0.167323 0.295412 0.334287 -5.2492 30.4321 1.64521 0.004 300 0 
135 1 1 0.0187659 0.00501149 0.0178896 0 0 0 0.0342778 0.260101 -0.328512 -0.00811256 0.0735026 0.0941836 4.53754 -15.9934 9.57074 0.004 300 0 
303 1 1 0.0403756 0.00433352 0.014887 0 0 0 0.266605 -0.183725 -0.110762 0.0147254 0.0222973 -0.0305932 18.6087 2.26327 -7.22065 0.004 300 0 
476 1 1 -0.0421368 0.00809855 0.0158325 0 0 0 -0.298824 -0.242656 -0.301783 0 0 -0.0210391 0.823704 -15.3197 -3.44424 0.004 300 0 
632 1 1 -0.0300405 0.0143137 0.0138987 0 0 0 -0.198804 0.213065 -0.438595 -0.0689232 0.125269 -0.319165 2.15109 1.79894 0.547188 0.004 300 0 
320 1 1 -0.00572568 0.016307 0.0136813 0 0 0 -0.102807 -0.00725849 0.0964237 -0.000289388 -0.0229991 -0.00865854 -13.867 -12.3635 -0.0087645 0.004 300 0 
792 1 1 0.00314886 0.014388 0.0122769 0 0 0 -0.182828 0.0880773 -0.333805 0 0 -0.0210391 -16.1163 -7.46091 -0.481216 0.004 300 0 
191 1 1 0.0316081 0.0133001 0.0139923 0 0 0 -0.191751 0.0254806 -0.255027 -0.0173761 0.0111782 -0.00467425 -26.4434 -22.3858 2.3457 0.004 300 0 
726 1 1 -0.0215719 0.0183909 0.0109892 0 0 0 0.0934961 0.153364 -0.624799 0 0 -0.0210391 -6.7299 7.11971 -0.0756319 0.004 300 0 
143 1 1 0.0168366 0.016807 0.0119988 0 0 0 -0.132026 -0.0848993 -0.293271 0.0636525 0.00166164 0.213933 -4.38859 -12.214 -7.78046 0.004 300 0 
863 1 1 0.0405051 0.0208636 0.0100814 0 0 0 0.301051 0.404763 -0.20157 0 0 -0.0210391 -15.8187 -3.88029 7.81817 0.004 300 0 
684 1 1 -0.0347003 0.0214961 0.0150807 0 0 0 -0.165351 0.0397959 -0.312314 0 0 -0.0210391 -14.953 5.30643 0.611269 0.004 300 0 
105 1 1 0.00164381 0.0233803 0.012627 0 0 0 0.0684793 -0.106361 -0.442821 0.116325 -0.0538014 -0.0136908 -2.52634 26.1311 4.12572 0.004 300 0 
317 1 1 0.0198135 0.0262943 0.0165785 0 0 0 0.149325 0.0366766 -0.0884857 0.034308 -0.0740948 -0.0732714 -7.68734 -0.942618 -2.6201 0.004 300 0 
366 1 1 0.0298034 0.0245733 0.0113616 0 0 0 -0.0407511 0.0474192 -0.177204 -0.000739284 -0.000984903 -0.0209369 8.35574 -11.8267 0.748686 0.004 300 0 
344 1 1 -0.0264518 0.0228354 0.0157572 0 0 0 -0.0585771 -0.0541509 -0.314211 0 0 -0.0210391 -4.6815 10.6124 -5.06002 0.004 300 0 
51 1 1 -0.0181011 0.0261574 0.0151538 0 0 0 -0.111145 0.0241431 0.0523104 0.0843625 0.517679 -0.381732 6.78235 8.96005 -11.5571 0.004 300 0 
750 1 1 -0.0053078 0.0308659 0.0118681 0 0 0 -0.0199677 0.049305 -0.141074 0.0138732 0.00367416 -0.0349295 -11.4121 6.85282 -0.293076 0.004 300 0 
433 1 1 0.0261124 0.0353218 0.0137567 0 0 0 0.336426 0.162498 -0.126736 -0.00262656 0.000316279 -0.0224831 2.91326 17.3782 -2.49378 0.004 300 0 
595 1 1 -0.0172957 0.0373552 0.0109966 0 0 0 -0.0808275 0.273804 0.0127134 0 0 -0.0210391 -20.0749 -5.32419 1.84979 0.004 300 0 
507 1 1 -0.00925961 0.0440841 0.0121917 0 0 0 -0.09877 0.344923 -0.321973 0 0 -0.0210391 -11.7143 13.9646 -6.98465 0.004 300 0 
151 1 1 0.00417395 0.0376887 0.0121896 0 0 0 0.0375419 0.21264 -0.319703 0 0 -0.0210391 -11.3998 14.5863 -0.869117 0.004 300 0 
188 1 1 -0.0156076 -0.034377 0.0160686 0 0 0 -0.156256 0.0227625 0.00962977 -0.653942 -0.319637 0.681711 -10.6666 13.7869 0.94132 0.004 300 0 
545 1 1 0.00292112 -0.0325413 0.0208724 0 0 0 0.0296835 -0.0948358 -0.0570699 0.149148 0.440732 -0.587613 4.72034 2.61563 0.644489 0.004 300 0 
556 1 1 0.0178675 -0.0340251 0.0149332 0 0 0 0.0459953 -0.0905633 -0.541095 -0.133194 0.00843211 0.163139 -0.43497 -11.6402 -7.31024 0.004 300 0 
415 1 1 -0.0218965 -0.0237448 0.0171915 0 0 0 -0.00787877 -0.0348081 -0.234228 0.00588959 0.0229646 -0.0554751 -1.65957 -11.7616 -3.47428 0.004 300 0 
243 1 1 0.00807097 -0.0225174 0.0167413 0 0 0 0.182155 -0.193171 -0.607563 -0.0102961 -0.0170013 -0.134248 9.30091 -12.7544 -2.46237 0.004 300 0 
266 1 1 -0.0258281 -0.0154839 0.0162998 0 0 0 -0.172309 0.0278397 0.0184274 0.0168521 0.013128 0.169092 -8.00266 -16.8486 -5.30764 0.004 300 0 
374 1 1 0.0273422 -0.0158622 0.0156509 0 0 0 0.0462844 0.141605 -0.550305 -0.228333 -0.400515 -0.181233 7.81095 -4.48046 4.63029 0.004 300 0 
775 1 1 -0.00588441 -0.0118483 0.018647 0 0 0 -0.0315844 -0.153759 -0.280024 0.071858 -0.222661 0.138813 9.56914 -6.23463 2.22719 0.004 300 0 
783 1 1 0.00627825 -0.0125526 0.0152534 0 0 0 0.0537523 -0.0795078 -0.202784 -0.0987624 0.107132 0.0934373 11.8984 1.88198 0.88094 0.004 300 0 
343 1 1 0.0393747 -0.0121629 0.0228697 0 0 0 0.0457369 -0.13059 -0.11412 0 0 -0.0210391 13.9687 7.34051 0.555527 0.004 300 0 
222 1 1 -0.0365297 -0.00805652 0.0172259 0 0 0 -0.379085 0.143912 -0.0865213 -0.161606 0.255196 -0.100257 -6.21188 1.66538 7.8684 0.004 300 0 
482 1 1 -0.0151618 -0.00735065 0.0165681 0 0 0 -0.220008 -0.149538 -0.0805907 -0.0357022 0.0220003 0.10362 -16.4051 14.7391 -5.1453 0.004 300 0 
194 1 1 0.0133546 -0.00956273 0.0177914 0 0 0 0.000604801 -0.0577467 -0.0776984 0 0 -0.0210391 26.1832 7.5609 0.312769 0.004 300 0 
735 1 1 -0.00299682 -0.000132069 0.0177967 0 0 0 -0.00924136 -0.0419163 -0.252371 0.0978387 -0.309125 -0.78975 -20.2043 10.8212 -14.4571 0.004 300 0 
90 1 1 0.0049754 -0.00404069 0.0181487 0 0 0 0.181084 0.00538657 -0.112272 0 0 -0.0210391 -27.6398 -1.45321 -8.24353 0.004 300 0 
338 1 1 0.0359525 -0.00167691 0.0176821 0 0 0 0.206757 -0.167983 -0.12431 -0.0147254 -0.0222973 -0.0114851 8.90489 16.7212 -0.000986989 0.004 300 0 
717 1 1 -0.0384102 7.6908e-05 0.0120944 0 0 0 -0.0628666 -0.0609342 -0.602329 0 0 -0.0210391 3.01192 -1.34781 0.368372 0.004 300 0 
305 1 1 -0.0334987 0.00636778 0.0193424 0 0 0 -0.149419 -0.16958 -0.227105 0 0 -0.0210391 -10.2685 9.1115 -7.06283 0.004 300 0 
454 1 1 0.00196893 0.0061384 0.0148158 0 0 0 0.188797 0.113197 0.048354 -0.386294 -0.335862 -0.302999 10.3024 22.0328 -0.939742 0.004 300 0 
460 1 1 0.0253181 0.0102512 0.0181655 0 0 0 -0.157397 0.042652 -0.470025 -0.0091155 -0.040389 -0.0315949 -2.39463 5.89104 6.69485 0.004 300 0 
7 1 1 0.0102534 0.0144026 0.016264 0 0 0 0.0277535 0.135256 -0.371666 0.0429983 -0.044428 -0.119169 7.24033 5.56222 4.11449 0.004 300 0 
543 1 1 0.0348248 0.0202322 0.0174878 0 0 0 0.0603483 0.331648 -0.438187 0 0 -0.0210391 2.57106 1.36091 -1.44798 0.004 300 0 
697 1 1 0.00832171 0.022644 0.0176369 0 0 0 0.0429324 0.0409809 -0.101029 0.0438442 0.202043 -0.240137 -0.442701 0.825307 -9.86545 0.004 300 0 
842 1 1 0.0126874 0.0295241 0.0179704 0 0 0 0.121295 0.0220274 0.0244806 -0.0547597 0.0259289 -0.013185 7.05196 -15.5648 -7.04482 0.004 300 0 
644 1 1 -0.0108422 0.0312873 0.017665 0 0 0 -0.21214 -0.0056184 -0.468436 0 0 -0.0210391 -9.33711 -0.880605 -4.6869 0.004 300 0 
368 1 1 -0.0191647 0.0358193 0.0198995 0 0 0 -0.0980173 -0.0149665 -0.386164 0 0 -0.0210391 7.06201 -5.28526 1.26319 0.004 300 0 
805 1 1 -0.0016393 0.0425481 0.017318 0 0 0 -0.0694461 0.251861 -0.271449 0 0 -0.0210391 -1.70072 -0.914348 -4.03244 0.004 300 0 
375 1 1 0.0107961 0.0378975 0.0192226 0 0 0 0.283602 0.156782 -0.298925 0 0 -0.0210391 11.4497 9.00691 -9.66033 0.004 300 0 
604 1 1 0.00438498 -0.0404407 0.0198598 0 0 0 -0.130314 -0.111084 -0.440159 0 0 -0.0210391 -2.26477 7.36961 -2.54276 0.004 300 0 
457 1 1 0.014046 -0.040263 0.0209381 0 0 0 -0.0294792 -0.133289 -0.471837 0 0 -0.0210391 -4.06692 4.6129 -0.820427 0.004 300 0 
606 1 1 -0.00546529 -0.0318288 0.0188205 0 0 0 -0.133023 0.00329396 -0.67836 0 0 -0.0210391 -0.149839 -4.22835 -0.45871 0.004 300 0 
100 1 1 0.012098 -0.0303634 0.0197604 0 0 0 0.0977354 0.0410935 -0.553983 0 0 -0.0210391 -3.13551 3.10166 0.602052 0.004 300 0 
110 1 1 0.0256285 -0.0331848 0.0191213 0 0 0 0.0242411 -0.295404 -0.424911 0 0 -0.0210391 10.4885 -6.53974 -7.18094 0.004 300 0 