ITEM: TIMESTEP
8800
ITEM: NUMBER OF ATOMS
891
ITEM: BOX BOUNDS mm mm mm
-0.05 0.05
-0.05 0.05
0 0.15
ITEM: ATOMS id type type x y z ix iy iz vx vy vz fx fy fz omegax omegay omegaz radius f_Temp[0] f_heatFlux[0] 
199 1 1 -0.00440524 -0.0458119 0.00397381 0 0 0 -0.00128603 0.000612614 -0.000673549 -0.00110319 0.00163228 -0.000709108 -0.173377 -0.263584 0.523802 0.004 300 0 
873 1 1 -0.0201454 -0.0414763 0.00389725 0 0 0 -0.00218814 0.00140335 -0.000613543 0.00131371 -0.00215697 0.000386142 -0.392091 -0.644005 0.664132 0.004 300 0 
485 1 1 -0.012666 -0.0442508 0.00397495 0 0 0 -0.00385401 0.000585861 -0.000229865 -0.00228842 -0.000650641 -0.000385506 0.00565003 -0.703568 0.116945 0.004 300 0 
850 1 1 0.00339426 -0.044135 0.00394 0 0 0 -0.00117834 -0.000787383 -0.000812185 -0.00319833 0.00264445 0.00372811 0.342766 0.0857436 -0.0108384 0.004 300 0 
186 1 1 0.0114438 -0.0445926 0.00392659 0 0 0 0.00162689 0.000447536 -0.00156279 -0.00179181 0.000861937 -0.00047953 -0.231838 0.613124 0.127678 0.004 300 0 
560 1 1 0.0189694 -0.0419964 0.00393863 0 0 0 0.00052148 -0.000371845 -0.00298163 -0.000421412 0.000960791 -0.00236511 -0.105784 -0.189126 -0.147268 0.004 300 0 
102 1 1 -0.0147486 -0.0357185 0.00386216 0 0 0 -0.00318349 0.00273733 0.000953432 -0.00239731 -0.00215091 -0.00209664 -0.397486 -0.510327 -0.382952 0.004 300 0 
88 1 1 -0.00728995 -0.0383745 0.00393656 0 0 0 -0.00442212 0.0003988 -0.00154056 -0.00265509 -0.000999096 -0.00120367 0.395914 1.61626 -0.13773 0.004 300 0 
776 1 1 0.00521539 -0.0353804 0.00394707 0 0 0 -0.000237228 -0.000765699 7.21831e-06 -0.00160236 -6.94724e-05 -0.00166076 -0.0432813 0.309392 -0.254719 0.004 300 0 
410 1 1 0.0130242 -0.0367984 0.00392456 0 0 0 0.000343002 -0.000291846 -0.00457871 -0.00275947 -0.000730387 -0.00557392 0.30335 -0.0198172 0.251651 0.004 300 0 
282 1 1 0.0258722 -0.0381333 0.00389111 0 0 0 0.00195329 0.000397543 -0.00558138 0.00305892 0.00184946 -0.0110972 0.228418 0.466196 0.414446 0.004 300 0 
682 1 1 -0.0301943 -0.034888 0.00393764 0 0 0 -0.00048309 0.000237199 0.000336618 0.00161466 -0.000837378 -0.000423964 0.221346 0.073049 0.333611 0.004 300 0 
251 1 1 -0.0224135 -0.0338394 0.00393154 0 0 0 -0.00127473 0.00173965 0.00117055 0.000211027 -0.0029326 -0.00223859 -0.195861 -0.235339 -0.174092 0.004 300 0 
770 1 1 -0.00204769 -0.0321186 0.00394232 0 0 0 -0.00094436 0.000911451 -1.34573e-05 -0.000679865 -0.00141552 -0.00169285 1.13845 -0.414114 0.480489 0.004 300 0 
883 1 1 0.0181821 -0.0307531 0.00389891 0 0 0 -0.00146211 -0.000137117 -0.00145158 -0.00408427 0.00298977 -0.00631201 0.266571 -0.375574 -0.609076 0.004 300 0 
838 1 1 0.0320293 -0.0331178 0.00396054 0 0 0 -0.000112041 0.000849979 -0.00245994 -0.000737253 0.00187441 -0.00547813 -0.443082 -0.521057 -0.085641 0.004 300 0 
617 1 1 -0.037243 -0.0271445 0.00391914 0 0 0 -0.00108545 0.000332791 0.000270902 0.00365692 -0.00173756 -0.000428447 0.291352 0.108493 0.550079 0.004 300 0 
824 1 1 -0.0292846 -0.027048 0.00392238 0 0 0 -0.00129521 0.000107112 0.00145109 0.00216597 -0.00101207 -0.00241242 -0.144811 -0.510955 -0.196462 0.004 300 0 
571 1 1 -0.0202779 -0.0262077 0.00393335 0 0 0 -0.00161073 0.00235164 0.00154384 -0.00150107 -0.00290355 -0.00352392 0.354398 -0.346248 0.283156 0.004 300 0 
861 1 1 -0.00959468 -0.0297135 0.00389299 0 0 0 -0.000695749 0.00117345 -0.00033629 -0.00165213 -0.00165238 -0.00258381 -0.379583 -0.187867 -0.581753 0.004 300 0 
434 1 1 0.0103758 -0.029341 0.00392443 0 0 0 -0.00140155 -0.00169399 -0.00166069 -0.00197876 -0.00106035 -0.00180449 0.390854 -0.00146432 0.472369 0.004 300 0 
103 1 1 0.0311654 -0.0252449 0.00392124 0 0 0 -0.00131713 -0.000199679 -0.00419749 0.00166155 0.000144143 -0.00516126 0.351618 -0.513886 0.349587 0.004 300 0 
769 1 1 -0.0413374 -0.0203028 0.00398172 0 0 0 -0.000585253 0.00158061 -0.000830226 0.00337615 -0.00405629 -0.00046523 -0.614081 -0.016796 0.140011 0.004 300 0 
94 1 1 -0.0333776 -0.0202508 0.00393105 0 0 0 -0.000748012 0.000262719 -0.000540542 0.000278613 -0.00170205 0.000577921 -0.356399 -0.0865125 -0.728735 0.004 300 0 
40 1 1 -0.0254133 -0.0201441 0.00391394 0 0 0 -0.0015966 0.000291737 9.11477e-05 0.000364578 0.000787388 -0.00105896 -0.355413 -0.359188 0.0747465 0.004 300 0 
19 1 1 -0.00863709 -0.0218717 0.00394413 0 0 0 0.00291711 0.000516735 9.20396e-06 -0.000599978 -0.00231099 -8.87291e-05 0.468438 -0.473974 -0.13501 0.004 300 0 
442 1 1 -0.000389164 -0.0218324 0.00392396 0 0 0 0.0012884 0.000197325 1.1902e-05 -0.000502176 -0.00101383 -0.00189738 -0.0822918 0.458621 -0.188608 0.004 300 0 
259 1 1 0.00758195 -0.0219531 0.00393482 0 0 0 -0.000373041 -0.00136507 -0.000999936 -0.00117988 0.000275195 -0.0018473 0.130245 -0.11451 -0.611323 0.004 300 0 
512 1 1 0.0154231 -0.023193 0.00396844 0 0 0 -0.000829672 -0.00310655 -0.000323682 -0.000983514 0.00131544 -0.00297289 -0.0318417 -0.114953 0.0885024 0.004 300 0 
470 1 1 0.0232778 -0.0243527 0.00392005 0 0 0 -0.00129635 -0.0028711 -0.0015001 -0.0027366 -0.000780022 -0.00402376 0.476905 -0.0126682 0.204189 0.004 300 0 
451 1 1 0.039035 -0.0244753 0.00391841 0 0 0 -0.00117901 -0.00126256 -0.000796945 -0.00023533 -0.000671541 0.00135143 0.154227 -0.441231 0.274195 0.004 300 0 
531 1 1 -0.0165139 -0.0191409 0.00396821 0 0 0 -0.00037081 -0.00485388 -0.000363852 -0.000324167 0.00110596 -0.00015002 0.478659 -0.364718 -0.249744 0.004 300 0 
229 1 1 0.0202271 -0.0168553 0.00386526 0 0 0 -0.00396812 -0.00220228 -0.00236884 -0.00348963 -0.000978673 -0.00369897 0.73142 -1.0083 1.04865 0.004 300 0 
734 1 1 0.0280394 -0.0179579 0.00392797 0 0 0 -0.00387605 -9.58705e-06 -0.00103198 -0.000377798 -0.0010489 -0.00424316 0.212533 -0.0987024 -0.0489112 0.004 300 0 
635 1 1 0.0426005 -0.0174504 0.00392092 0 0 0 -0.00234336 -0.000122895 -0.00275065 -0.00107086 0.00132341 0.00131489 0.0331014 -0.642104 -0.30071 0.004 300 0 
87 1 1 -0.0448111 -0.0105205 0.0039171 0 0 0 -0.000313075 0.000428776 -0.00128656 0.000792521 -0.00074597 0.00259903 0.144527 -0.00053114 -0.439208 0.004 300 0 
406 1 1 -0.0373793 -0.0134118 0.00396065 0 0 0 -0.000523656 0.000587898 -0.00389712 0.000323537 -0.00025252 0.00114123 -0.366609 -0.0229401 0.0435848 0.004 300 0 
224 1 1 -0.0230689 -0.0126074 0.00388037 0 0 0 -0.00105026 2.37417e-07 -0.000359773 0.00204981 0.000425472 0.000457316 0.0701105 -0.446563 -0.0486472 0.004 300 0 
751 1 1 -0.0102839 -0.0141604 0.00396965 0 0 0 0.000137939 -0.000753341 0.00160723 0.000141586 -0.00087171 -9.5586e-05 0.045981 -0.187273 0.667225 0.004 300 0 
622 1 1 -0.00271805 -0.011736 0.00388334 0 0 0 0.00113042 -0.001851 0.000889385 -2.50187e-05 0.00176264 -6.26242e-05 0.562731 0.246574 0.69864 0.004 300 0 
128 1 1 0.00956781 -0.0107621 0.00387993 0 0 0 0.000578049 0.00176498 -0.000512658 0.0023006 0.00023055 0.00309206 -0.44465 0.475926 1.29608 0.004 300 0 
68 1 1 0.0263494 -0.0102224 0.00396332 0 0 0 -0.00275472 -0.000260268 -0.000579429 0.00110958 -0.000382795 -0.0014832 -0.0035096 -0.951814 -0.0288625 0.004 300 0 
791 1 1 0.0358191 -0.0126276 0.00395751 0 0 0 -0.0124319 0.00808136 -0.00170363 -0.00335511 0.00560117 -0.000168629 -0.595201 -2.91931 1.97176 0.004 300 0 
354 1 1 -0.0381472 -0.00553123 0.00392152 0 0 0 0.000830234 0.000297237 -0.00262645 0.00120672 0.000961511 0.00227804 0.243294 0.243509 -0.366876 0.004 300 0 
725 1 1 -0.0305666 -0.00796885 0.00391035 0 0 0 0.000829095 -0.000639952 -0.00237554 0.000454564 -1.8753e-05 0.000297491 0.185324 0.124064 0.886685 0.004 300 0 
353 1 1 -0.0161323 -0.00882803 0.00390594 0 0 0 -0.000543274 -0.000341664 0.000329822 -0.000824472 0.00291862 1.38422e-05 -0.219683 -0.141989 -0.195049 0.004 300 0 
391 1 1 -0.00858088 -0.0064155 0.00390576 0 0 0 -0.000176698 -0.00127489 0.00294107 -0.00170847 0.0015973 -0.00160107 0.380001 -0.292016 -0.458829 0.004 300 0 
683 1 1 0.0173817 -0.00943101 0.00391518 0 0 0 -0.000999013 0.000156139 -0.00121957 0.00359432 0.00110039 -0.00332375 0.16686 -0.609886 -1.63825 0.004 300 0 
690 1 1 0.0385773 -0.00517761 0.00387176 0 0 0 0.000109365 0.00346881 -0.00110073 0.00193817 0.00356635 3.03192e-05 -0.858295 -0.0198832 -4.93855 0.004 300 0 
10 1 1 0.0449617 -0.00991984 0.00397292 0 0 0 -0.00119918 0.000197759 -0.00017338 -0.000439034 0.00114754 0.000915602 0.375371 -0.209124 -0.0345776 0.004 300 0 
402 1 1 -0.0460132 -0.00269531 0.00391636 0 0 0 0.00049842 0.000947057 2.96909e-06 0.00015383 0.000369909 0.00200596 -0.0229598 0.0847499 0.156735 0.004 300 0 
761 1 1 -0.0294595 -0.000163293 0.00393416 0 0 0 -0.00113601 0.00107607 -0.00201683 -0.000154054 0.000561869 0.000783709 -0.0775831 -0.550548 -0.329562 0.004 300 0 
293 1 1 -0.0229308 -0.00468244 0.00395852 0 0 0 -0.000240591 0.000992544 -0.000116477 0.000616323 0.00165299 0.00148938 -0.0456354 -0.18411 -0.264288 0.004 300 0 
384 1 1 -0.0145114 -0.0010054 0.00398052 0 0 0 -0.00361045 0.00240772 7.5165e-05 0.00106711 0.00445961 0.00164522 0.0391829 -1.09056 0.704761 0.004 300 0 
378 1 1 0.00138 -0.00492175 0.00394111 0 0 0 0.000882317 -0.00169591 0.00296254 0.0042755 -0.000549833 -0.00192033 0.165482 0.0469753 -0.322822 0.004 300 0 
390 1 1 0.010428 -0.00284562 0.00397163 0 0 0 -0.000635956 0.00168065 0.000823895 0.00363067 -0.00242004 0.00238244 -0.0668149 -0.157421 1.08525 0.004 300 0 
411 1 1 0.0224283 -0.00332221 0.00397128 0 0 0 1.9664e-05 -0.000578653 0.00123592 0.00256587 0.00280476 -0.00447006 0.101686 0.603389 0.116314 0.004 300 0 
342 1 1 0.0307609 -0.00360321 0.00397826 0 0 0 -0.00203952 0.000802526 -0.000280739 0.00271657 -0.00207292 -0.00299245 -0.574488 -0.354274 0.0340794 0.004 300 0 
262 1 1 0.0460272 -0.00208613 0.00395454 0 0 0 -0.000503763 0.000502433 -0.000163294 0.00120426 0.000894239 0.000666458 -0.308138 -0.00385926 -0.0926167 0.004 300 0 
261 1 1 -0.039839 0.00222623 0.00394456 0 0 0 0.00121346 0.00150899 -0.000770206 0.00205832 0.00188087 0.00107311 0.0763447 0.347341 -0.0380031 0.004 300 0 
666 1 1 -0.00451463 0.000396395 0.00395146 0 0 0 0.00343801 -9.88894e-05 0.00304492 0.00203573 0.000840625 0.000500304 -0.29237 0.74303 0.205806 0.004 300 0 
815 1 1 0.00444915 0.00240982 0.00393489 0 0 0 -0.00239638 -0.000509665 0.000562566 0.00292809 -0.00261263 -0.000497125 0.168995 -0.730617 -1.13842 0.004 300 0 
306 1 1 0.0163869 0.00244334 0.00395673 0 0 0 0.00163563 -0.00186459 0.00148382 -0.000332091 -0.000567712 0.000165643 0.448529 0.48925 -2.16203 0.004 300 0 
178 1 1 0.0241193 0.00440364 0.00387541 0 0 0 -0.00101537 -0.00105569 0.000108968 0.00143163 0.00058437 0.000661559 -0.136696 -0.0813901 0.345894 0.004 300 0 
862 1 1 0.0320819 0.004245 0.00392527 0 0 0 -0.00207404 -0.000936856 -0.000107746 -0.000492477 -0.00245586 -0.0011285 0.399127 -0.644119 0.0721118 0.004 300 0 
661 1 1 0.039878 0.00287805 0.0039475 0 0 0 -0.00208846 0.000116005 0.000374408 -0.000169369 -0.000488187 -0.00135907 -0.246083 0.573262 0.336761 0.004 300 0 
677 1 1 -0.0453671 0.00790876 0.00393868 0 0 0 0.00105932 0.000693738 0.000780291 0.000974833 0.00103648 0.0001229 -0.0635728 0.164157 0.158207 0.004 300 0 
12 1 1 -0.0333322 0.00670024 0.00395144 0 0 0 0.00106668 0.00309798 -0.000617606 0.00152429 0.000970961 0.000237036 0.687777 0.0581458 -0.352633 0.004 300 0 
420 1 1 -0.0253961 0.00663832 0.00393331 0 0 0 0.00168268 0.000318336 0.00100632 -0.000297217 -0.00183553 0.00180674 0.0475005 -0.197832 -0.360484 0.004 300 0 
654 1 1 -0.0175108 0.007243 0.00388037 0 0 0 0.00269659 -0.00198226 0.00168582 0.000701376 -0.000675068 0.00218322 0.350236 0.338218 0.120753 0.004 300 0 
145 1 1 -0.00453649 0.008307 0.0038451 0 0 0 0.00433419 0.00025074 0.00231444 0.000416125 0.000731571 0.000965247 0.0803301 1.14012 -0.582901 0.004 300 0 
624 1 1 0.0451531 0.0088525 0.00390886 0 0 0 -0.00026836 0.000505892 -0.000518353 0.00234942 -0.00161971 -0.00354745 -0.22715 0.00428882 -0.0698619 0.004 300 0 
613 1 1 -0.0374249 0.0134454 0.00384134 0 0 0 0.00316162 0.00611172 0.000564662 0.00555583 0.00237451 0.000597926 -1.56709 0.49592 0.327555 0.004 300 0 
265 1 1 -0.0293182 0.0135202 0.0039665 0 0 0 0.0023995 0.00180619 0.000289714 0.00305232 -0.00179939 0.00151835 -0.221411 0.328106 -0.0348444 0.004 300 0 
273 1 1 -0.0213897 0.0141406 0.00392629 0 0 0 0.00277059 -0.00155912 0.00104598 0.00260524 -0.00198631 -0.000502461 0.128092 0.11794 -0.760653 0.004 300 0 
492 1 1 -0.0114144 0.0123618 0.00398083 0 0 0 0.00108843 -8.41582e-05 0.000713211 0.00388734 0.00269224 0.000561591 -0.401019 0.107767 0.865082 0.004 300 0 
234 1 1 0.00591926 0.0103709 0.00393042 0 0 0 0.000679056 -0.000502962 0.000132977 0.000245527 -0.000106411 -0.000850376 -0.00769747 -0.0936494 -0.864989 0.004 300 0 
160 1 1 0.0143198 0.0106966 0.00390137 0 0 0 0.00124661 -0.00348422 0.000967192 -0.00034897 0.00199319 -0.00125333 0.924252 0.259254 -0.261694 0.004 300 0 
484 1 1 0.0221332 0.0120391 0.00390614 0 0 0 0.000867808 -0.00140923 -0.000356946 -0.00137094 0.00115861 -0.00112557 0.204806 0.283073 -0.85181 0.004 300 0 
743 1 1 0.0300527 0.0126256 0.00398041 0 0 0 -0.000197814 -0.00545358 5.4237e-05 -0.00126227 -0.00137952 0.000520606 1.13438 -0.126487 0.430965 0.004 300 0 
514 1 1 0.0379819 0.0129647 0.00387626 0 0 0 -0.00147539 0.000217505 -0.000247398 0.000765728 -0.00261356 -0.00372892 -0.261199 -0.392981 -0.711105 0.004 300 0 
530 1 1 -0.0159022 0.0198488 0.00392287 0 0 0 0.00499565 -0.00184938 0.00137144 0.00266508 -0.00140556 -0.00156375 0.463234 0.893837 0.255037 0.004 300 0 
227 1 1 -0.00731114 0.0191858 0.00396572 0 0 0 0.00159171 -0.000898483 -0.00162154 0.00284152 -0.0014424 -0.00437561 0.0781131 0.256504 -0.997795 0.004 300 0 
392 1 1 -0.000470148 0.0150841 0.00394225 0 0 0 0.00387884 0.00143251 0.00121299 0.00160829 -0.00287831 -0.000318425 0.323046 0.32973 0.494049 0.004 300 0 
493 1 1 0.0098616 0.0172743 0.0039388 0 0 0 0.00351868 -0.00184994 0.00225184 -0.0011683 0.000520937 -0.00104477 -0.270973 0.0947492 -0.30574 0.004 300 0 
34 1 1 0.0176452 0.0188025 0.00393495 0 0 0 0.00408527 -0.00327376 0.00139785 -0.00336801 -0.000682054 0.000338484 -0.0294514 0.224321 -0.145563 0.004 300 0 
206 1 1 0.025556 0.0192185 0.0039697 0 0 0 0.00333092 -0.00268018 -0.000259334 -0.00230608 -0.000924119 -0.000803543 0.345961 0.417969 0.334809 0.004 300 0 
104 1 1 0.0334389 0.0198967 0.00390806 0 0 0 0.00155252 -0.000125268 -0.00146055 -0.000578749 0.000109126 9.95921e-05 -0.0948409 -0.119261 0.108233 0.004 300 0 
809 1 1 -0.0412692 0.0204023 0.00397132 0 0 0 0.00459785 0.00758342 0.00042329 0.00108501 0.00287639 -0.000981465 1.34998 -0.0497257 -0.93853 0.004 300 0 
773 1 1 -0.0331995 0.0204039 0.00394029 0 0 0 0.00515015 0.00467186 0.00027073 0.00440395 -0.000125528 0.000619428 -0.643579 1.15824 -1.33742 0.004 300 0 
792 1 1 0.00345131 0.0219491 0.00392763 0 0 0 0.00441388 0.000493846 0.000801352 -0.000717762 0.000841282 -0.00232611 -0.449193 -0.242564 -0.450721 0.004 300 0 
718 1 1 0.0413503 0.0202912 0.00392501 0 0 0 0.000170122 0.00108961 -0.00105603 -0.000751782 0.00145074 0.000179222 -0.433414 -0.106738 0.139363 0.004 300 0 
101 1 1 -0.0371799 0.0272226 0.00390325 0 0 0 0.00464898 0.00492735 -0.000100521 0.00173145 0.00212391 0.00032152 -0.938794 1.16511 1.50499 0.004 300 0 
246 1 1 -0.0290828 0.0273079 0.00398087 0 0 0 0.00579826 -0.00106645 0.0028761 0.00151344 -0.00982933 -0.00181382 -0.942474 1.33671 1.01786 0.004 300 0 
331 1 1 -0.0212223 0.0257716 0.00389064 0 0 0 0.0033319 0.00160213 -6.86632e-05 -0.0035881 -0.00132834 -0.00120621 -0.272927 0.358335 -1.02059 0.004 300 0 
846 1 1 -0.0134603 0.0273962 0.00398991 0 0 0 0.00557251 -0.00175794 0.00143233 -0.00340913 0.000320422 -0.00488421 -0.802912 -1.10424 0.0200687 0.004 300 0 
348 1 1 -0.0033026 0.026066 0.00393298 0 0 0 0.00395854 -0.00135768 -0.000798732 -0.0020681 0.00104949 -0.00149422 -0.0617142 0.0888417 0.711858 0.004 300 0 
786 1 1 0.00838665 0.0281219 0.00389705 0 0 0 0.00409521 0.000621915 0.000360954 0.000112398 -0.000773611 -0.00294355 0.42037 0.512826 0.582215 0.004 300 0 
316 1 1 0.0162654 0.0272807 0.00390209 0 0 0 0.00404008 -0.000924571 0.00024423 -5.73518e-05 -0.000786058 0.000185923 0.0739869 1.12567 -1.13619 0.004 300 0 
495 1 1 0.0289155 0.0264423 0.00397063 0 0 0 7.39856e-05 -0.00158918 0.000279799 -0.00174701 -0.00134817 0.000579117 0.382981 0.343673 0.670267 0.004 300 0 
863 1 1 0.0367624 0.0277133 0.00393278 0 0 0 -0.00107691 0.00158013 -0.000122247 -0.00087978 0.00107667 0.000170453 -0.276642 -0.290013 0.149795 0.004 300 0 
511 1 1 -0.00762218 0.0327169 0.00388737 0 0 0 0.0059847 -0.00123581 -0.000315858 -0.00519024 0.00121557 -0.00212306 0.468921 1.55781 -0.0218959 0.004 300 0 
722 1 1 0.00164991 0.0322844 0.00397362 0 0 0 0.00356466 0.000398075 6.74163e-06 -0.00100598 2.6044e-05 -0.0040527 -0.349059 -0.706514 -0.637232 0.004 300 0 
2 1 1 0.0229375 0.0316632 0.00396141 0 0 0 0.00237416 6.73787e-05 0.00118176 -0.00312589 -0.00105513 -0.00137576 -0.698723 0.236317 -1.37015 0.004 300 0 
254 1 1 0.0305567 0.0343791 0.00398152 0 0 0 -0.00498839 0.00380496 -7.28757e-05 -1.05713e-06 -1.44328e-06 -1.43579e-06 -0.952672 -1.25061 -0.960994 0.004 300 0 
257 1 1 -0.0295466 0.0352781 0.00393131 0 0 0 -0.000680785 -0.00121887 0.00194745 0.00145133 -0.00327297 0.00148242 0.305503 -0.14282 0.709746 0.004 300 0 
582 1 1 -0.0157259 0.035664 0.00390368 0 0 0 -0.00580945 -0.00213732 0.00237679 0.00290589 -0.00391075 0.0118487 0.408432 -1.81897 0.763295 0.004 300 0 
255 1 1 -0.00265514 0.0389279 0.00391 0 0 0 0.00457956 0.000392778 0.000494004 -0.00416528 0.000163387 -0.00420031 -0.0742887 1.4796 0.353126 0.004 300 0 
887 1 1 0.00813457 0.0373179 0.0039206 0 0 0 0.00144475 -0.000427032 0.000373361 -0.000652223 -0.00431384 -0.00343248 0.0426667 0.273223 0.209544 0.004 300 0 
719 1 1 0.0157987 0.0351854 0.00398711 0 0 0 0.00280309 -0.000642839 0.000245075 -0.00199049 -0.00123855 -0.000988095 -0.0291654 -0.149812 1.33234 0.004 300 0 
21 1 1 0.0234645 0.0396035 0.00391582 0 0 0 -0.000743576 0.00062636 -0.00099435 0.00020604 -0.000292123 -0.00228718 -0.21593 -0.0518266 0.221756 0.004 300 0 
325 1 1 -0.0222314 0.0402992 0.00393099 0 0 0 0.00133565 0.00105106 0.00336998 0.00287188 0.00103139 0.0053979 -0.0354888 0.438452 0.138654 0.004 300 0 
595 1 1 -0.0148983 0.043566 0.00398133 0 0 0 0.00484503 -0.000695989 0.000953307 -0.00202847 -0.00276912 0.00300991 0.392291 -0.740116 -1.1251 0.004 300 0 
568 1 1 0.016329 0.0430822 0.00392608 0 0 0 -0.00031047 -0.000161967 -4.12422e-05 1.0589e-05 -0.000669202 -0.000710578 0.0895019 0.145333 -0.200739 0.004 300 0 
387 1 1 -0.00716163 0.0454919 0.00390723 0 0 0 0.00326077 -0.00020032 0.00121165 -0.00552247 -0.00154708 0.00254342 -0.219205 0.810968 0.831676 0.004 300 0 
852 1 1 0.000788392 0.0460568 0.00397521 0 0 0 0.00166803 0.000619009 -0.000449743 0.000688323 -0.000843554 0.00132193 0.199839 -0.316199 0.302522 0.004 300 0 
157 1 1 0.00868614 0.0452466 0.00390027 0 0 0 0.000425801 -0.000600527 0.000305762 0.00171314 -0.00145094 0.0011393 0.0823816 -0.023665 0.226296 0.004 300 0 
400 1 1 -0.0247492 -0.03879 0.00974455 0 0 0 -0.000693842 0.000618855 -0.00112002 0.000356995 -0.00128117 -0.000351728 0.36082 0.92666 -0.417214 0.004 300 0 
606 1 1 -0.000620941 -0.038689 0.00815373 0 0 0 -0.00419426 -0.000565881 -0.00272718 -0.00234061 0.00117507 -0.00209116 0.0129014 -1.53122 0.120003 0.004 300 0 
724 1 1 -0.0339091 -0.0311656 0.00985415 0 0 0 0.00108847 0.000213945 4.95637e-05 0.00137284 0.000922021 5.06374e-05 0.192561 0.215823 0.142862 0.004 300 0 
183 1 1 0.0251949 -0.031172 0.00752858 0 0 0 -0.00210216 -0.00131553 -0.00235841 -0.00224123 -6.65115e-05 -0.0059621 -0.0910963 0.553846 1.27971 0.004 300 0 
544 1 1 -0.0140337 -0.0252699 0.00872888 0 0 0 2.2218e-05 0.00529661 -0.00138069 -0.00377962 -0.00389759 -0.00444388 -0.781546 1.23712 0.730803 0.004 300 0 
29 1 1 -0.00445556 -0.026369 0.00897467 0 0 0 0.00150384 9.42566e-06 0.000669077 0.000799289 -0.003493 -0.00317273 0.124529 -0.449594 0.351633 0.004 300 0 
248 1 1 0.00350353 -0.0277623 0.00757679 0 0 0 -0.00138753 -0.000902006 3.0874e-05 3.49559e-05 -0.000374726 -0.000328569 -0.854321 0.249779 -0.725182 0.004 300 0 
79 1 1 0.0358305 -0.0289382 0.00958594 0 0 0 -0.000837664 -0.00094987 0.000915961 0.000794618 0.000887351 3.76525e-05 -0.540873 0.610756 0.212497 0.004 300 0 
291 1 1 -0.00452496 -0.0174086 0.00910531 0 0 0 0.00434477 -0.00115847 0.00135125 -0.000185104 -0.00370775 0.00153172 -0.7974 0.279482 -0.320055 0.004 300 0 
891 1 1 0.00374593 -0.0155138 0.00635025 0 0 0 0.00267683 -0.000882225 0.000600947 -0.00023747 -0.000578198 -0.000983139 0.342067 -0.400325 -0.259396 0.004 300 0 
870 1 1 0.0140286 -0.0154191 0.00848748 0 0 0 -0.00280482 -0.00108659 -0.0035482 0.00153179 -0.00148118 0.0013219 -2.01562 1.02038 -1.07228 0.004 300 0 
777 1 1 0.034596 -0.0192969 0.00807703 0 0 0 0.0010051 0.000785714 -0.0121449 0.00175363 -0.000771376 -0.00265375 3.53218 2.57402 2.1188 0.004 300 0 
837 1 1 -0.0295309 -0.0146439 0.00794335 0 0 0 0.000427546 -0.000425461 -0.000767617 0.00036816 -0.000321061 0.00104933 -0.420012 -1.16288 -0.325724 0.004 300 0 
445 1 1 -0.0180764 -0.0139144 0.00989304 0 0 0 0.00425238 0.0131447 0.000188429 0.00308322 -0.00205713 0.000841037 -2.28773 1.74524 2.60504 0.004 300 0 
615 1 1 -0.0351006 -0.000817261 0.00956134 0 0 0 -0.000281111 -0.000606162 -0.00298824 0.00292207 0.00109803 0.00350224 -0.297445 -0.368692 0.529558 0.004 300 0 
476 1 1 -0.0459527 0.00260161 0.00984715 0 0 0 0.00232559 -0.0010067 0.00291915 -0.000728894 0.0011496 0.00243211 0.0697342 0.039012 0.279957 0.004 300 0 
16 1 1 -0.020996 0.00167547 0.00829223 0 0 0 0.000505763 0.000294365 0.00294369 -0.000451315 0.00029014 0.0034114 0.198078 -0.386673 -0.304061 0.004 300 0 
303 1 1 0.0459519 0.00345609 0.00964335 0 0 0 0.000159405 0.000540471 -0.00111079 0.00123764 0.00178572 -0.00149831 0.237464 -0.086954 0.0124378 0.004 300 0 
523 1 1 -0.0390178 0.00798404 0.00936579 0 0 0 0.00124185 0.00417017 -0.0020281 0.0032904 -0.000530053 0.0038334 -0.147548 -0.457376 -0.650031 0.004 300 0 
704 1 1 -0.0107913 0.00517844 0.00742596 0 0 0 0.00462916 -0.00091317 0.00320489 0.000420918 0.00210936 0.00413731 0.451673 -0.756485 0.942168 0.004 300 0 
454 1 1 0.00102956 0.00713862 0.00929727 0 0 0 0.00465593 -0.000834438 0.00419064 0.00244536 -0.00411005 0.000587905 0.569353 -1.3815 0.868456 0.004 300 0 
31 1 1 0.0103418 0.00547306 0.00829877 0 0 0 -0.000989547 -0.00224223 -3.11629e-06 -0.000446553 0.000990912 -0.00112575 -0.938482 0.579927 -0.0963235 0.004 300 0 
135 1 1 0.0188714 0.00747567 0.00960359 0 0 0 0.00458251 -0.00248348 0.00155873 -0.00264302 -0.000917287 -0.00312928 -0.435355 -0.565746 1.07121 0.004 300 0 
712 1 1 0.0281337 0.007463 0.00996381 0 0 0 -0.00314045 -0.00519116 0.00133274 -0.000326139 -0.00128328 -0.000344682 0.971996 -0.0484981 -0.64901 0.004 300 0 
210 1 1 0.0394931 0.00808649 0.00991653 0 0 0 0.000577933 0.000152561 0.000655538 0.000312446 0.000458885 -0.00473102 -0.0359735 1.21505 0.240809 0.004 300 0 
651 1 1 -0.0438146 0.014282 0.00839117 0 0 0 0.00151594 0.00665017 -0.00394076 0.00192739 0.000119471 0.000864707 0.111438 -0.513492 0.536236 0.004 300 0 
621 1 1 0.0437377 0.0147221 0.00901987 0 0 0 0.000136073 0.000625116 -0.00293674 0.00230817 -0.00116115 -0.00416151 -0.0939168 -0.597607 -0.285924 0.004 300 0 
726 1 1 -0.0258038 0.0200055 0.00689862 0 0 0 0.00470917 0.000515422 -0.000444993 0.0041809 -0.000221367 0.00095202 -0.134495 -0.342967 -0.00837002 0.004 300 0 
230 1 1 -0.00845502 0.0245575 0.00974422 0 0 0 0.00467264 -0.00808407 0.000653929 0.000368292 -0.00078363 -0.00329136 3.15488 0.775481 -1.47735 0.004 300 0 
320 1 1 -0.00171947 0.020324 0.00977942 0 0 0 0.00829417 -0.00150301 0.00470163 -0.00102976 -0.00176765 -0.00409046 0.252641 -0.418026 0.335889 0.004 300 0 
7 1 1 0.0129267 0.0224144 0.00919513 0 0 0 0.00628865 -0.000972568 0.00175341 -0.0017088 0.000592657 0.000256505 -0.37712 -0.0638496 -0.223291 0.004 300 0 
83 1 1 0.0214425 0.0239784 0.0088453 0 0 0 0.00259861 -0.00461845 8.69638e-05 -0.000483618 -0.000959907 0.0011748 0.0121634 -0.920371 -0.162191 0.004 300 0 
747 1 1 -0.0336783 0.031447 0.0095708 0 0 0 0.00183539 -0.00126785 0.00661935 0.00183764 -0.00117701 0.00123801 -0.837463 -1.38936 -0.14171 0.004 300 0 
51 1 1 -0.0225607 0.0329666 0.0070346 0 0 0 -0.00119017 -2.03306e-05 0.000593422 0.00511222 -0.00135807 0.00616467 0.121729 -0.59111 -0.307641 0.004 300 0 
116 1 1 -0.00936062 0.0391229 0.00812696 0 0 0 0.00425242 -0.00183877 0.00290674 -0.00644482 -0.000715765 0.000528793 0.388623 -1.33902 0.288572 0.004 300 0 
205 1 1 -0.000554766 -0.0460643 0.0110198 0 0 0 -0.00243828 -0.000245992 -0.00140423 -0.00153079 0.000263362 -0.00506134 -0.409035 0.756428 0.814697 0.004 300 0 
836 1 1 0.00739661 -0.0454568 0.0106646 0 0 0 -0.0008029 -0.00158917 -0.00283934 -0.00221893 0.000140301 0.00641047 0.344381 -1.19576 0.613974 0.004 300 0 
486 1 1 -0.0157728 -0.0401581 0.0103569 0 0 0 -0.002247 0.00134532 -0.0016777 -0.00180678 -0.00179901 0.00121996 1.21429 0.707347 -0.0542851 0.004 300 0 
311 1 1 -0.0083805 -0.0442172 0.0107059 0 0 0 -0.000104653 0.00392625 -0.00291649 -0.000488095 -0.00656084 -0.00206733 -2.02073 0.941158 -0.269959 0.004 300 0 
447 1 1 0.0178199 -0.0425037 0.0117701 0 0 0 0.00437158 0.00250878 -0.00540903 0.000564701 0.00677008 0.00498418 -1.54215 0.29097 0.0876477 0.004 300 0 
279 1 1 0.0110524 -0.0384478 0.0113971 0 0 0 -0.00243425 -0.00299455 -0.0151065 -0.00859891 -0.0011059 -0.0117896 -0.0152583 -0.524694 1.35799 0.004 300 0 
110 1 1 0.0248227 -0.0388171 0.0116842 0 0 0 0.0055224 0.00448573 -0.0167767 -0.00261332 -0.00144079 -0.00527073 1.66604 -2.69444 -0.197521 0.004 300 0 
188 1 1 -0.0178971 -0.0320721 0.010178 0 0 0 -0.00039374 0.00628475 0.00117691 -0.00234993 -0.00862248 -0.00372642 -1.34005 0.269758 0.225182 0.004 300 0 
810 1 1 -0.0102857 -0.0344136 0.0101936 0 0 0 -0.00178261 0.00192142 -0.000529765 -0.00159629 -0.00326189 -0.00759106 -0.130298 1.02277 -0.551987 0.004 300 0 
412 1 1 -0.00320498 -0.0328733 0.0133169 0 0 0 -0.00207172 -0.000510281 -0.000763979 0.00442302 -0.00484555 -0.010126 0.0735611 -1.82285 -0.249113 0.004 300 0 
545 1 1 0.00448586 -0.0341573 0.0122194 0 0 0 -0.00248203 -0.00388258 -0.0022909 -0.00164996 -0.00409606 -0.00373774 1.76874 2.27836 -0.889452 0.004 300 0 
100 1 1 0.0114751 -0.0304741 0.0116929 0 0 0 -0.00276841 -0.00177956 -0.00385669 -0.00357584 -0.0061964 -0.00684658 -0.384111 -0.647604 1.11584 0.004 300 0 
556 1 1 0.0181766 -0.0346033 0.0108364 0 0 0 0.00197195 0.00197262 -0.00430995 0.00268175 0.00342939 -0.00479913 -0.426451 1.43369 0.633539 0.004 300 0 
32 1 1 0.0309698 -0.0340852 0.0130794 0 0 0 0.00179556 -0.00134563 0.00432395 0.0018135 0.0053114 -0.0077434 0.860842 0.49554 -0.222219 0.004 300 0 
5 1 1 -0.0386714 -0.0250124 0.0114565 0 0 0 2.77214e-05 0.000172487 -0.00133345 0.00225626 -0.0036667 0.00231695 -0.847118 0.221192 0.0375395 0.004 300 0 
415 1 1 -0.0254112 -0.0294125 0.0104158 0 0 0 -0.000202748 0.00520237 0.00542966 5.6514e-05 -0.00128514 -0.00361177 -1.59476 0.816922 0.196204 0.004 300 0 
446 1 1 -0.00964833 -0.0279862 0.0147853 0 0 0 -0.000197712 0.00203353 -0.00428157 -0.00259509 -0.00372386 -0.0120993 -0.0917951 -0.778013 -0.357025 0.004 300 0 
814 1 1 0.019047 -0.026268 0.0103764 0 0 0 -0.00113306 -0.00109471 -0.00171752 -0.00281311 -0.000870647 -0.00853855 -0.634377 -0.532345 -0.75548 0.004 300 0 
24 1 1 0.0289399 -0.0254885 0.0114998 0 0 0 -0.00293878 0.00412143 -0.0118779 -0.00340457 0.00120867 -0.00850938 -1.1194 1.62949 -0.417198 0.004 300 0 
266 1 1 -0.0293166 -0.0224588 0.0104247 0 0 0 -0.00237685 0.00132799 -0.000280034 0.000504323 -0.0042997 -0.00203141 -0.0853593 -0.159973 0.573238 0.004 300 0 
487 1 1 -0.0208413 -0.0214235 0.0102572 0 0 0 -0.00256266 0.00468417 0.00118018 -0.00101704 -0.00693854 -0.00110416 -1.6558 0.146773 -0.135655 0.004 300 0 
655 1 1 0.00200386 -0.0211218 0.0116589 0 0 0 0.00261842 -0.00202832 -0.00148869 -0.000501868 -0.000694353 -0.00185383 0.441075 0.802669 -0.162595 0.004 300 0 
243 1 1 0.0114478 -0.0225726 0.0108634 0 0 0 -0.00312404 -0.00214715 -0.00227191 -0.00191053 -0.00199332 -0.000770506 -0.010853 -0.452408 -0.135449 0.004 300 0 
528 1 1 0.0400283 -0.0228681 0.0124989 0 0 0 0.00429057 0.00336974 -0.0141982 0.00165754 1.54051e-06 0.00518818 -4.18137 -1.15886 -1.76726 0.004 300 0 
356 1 1 -0.0361774 -0.0174999 0.0110892 0 0 0 -0.000941689 -5.2038e-05 -0.00524586 0.00339454 -0.00450239 0.00248643 0.229887 -0.0982109 0.240564 0.004 300 0 
112 1 1 -0.0257354 -0.0157219 0.0147484 0 0 0 -0.00732355 0.00713264 0.00485058 4.62963e-05 -0.00393709 -0.00233009 -1.57291 -1.09769 0.828306 0.004 300 0 
739 1 1 -0.0118522 -0.0183718 0.0119404 0 0 0 0.00233719 0.00737232 -0.00896205 -0.00033493 -0.00521332 0.00292731 0.875553 -2.55433 -2.28882 0.004 300 0 
30 1 1 0.00806313 -0.0159174 0.0136335 0 0 0 0.00983744 -0.00138454 0.011573 -0.00334633 -0.000386108 -0.00312083 2.8561 1.88593 0.396972 0.004 300 0 
309 1 1 0.0236229 -0.0197632 0.0103794 0 0 0 -0.00265023 -0.000309474 -0.00678666 -0.00208387 0.0021228 -0.00858488 0.0292841 0.898789 1.24952 0.004 300 0 
418 1 1 0.0433096 -0.0156404 0.0115793 0 0 0 0.00156302 0.00695561 -0.0062446 0.000960182 0.00248751 0.00628595 -2.07698 0.807133 -2.8228 0.004 300 0 
673 1 1 -0.0436033 -0.0148523 0.0103962 0 0 0 -0.000549238 -0.000284461 -0.00295677 0.00245088 -0.00362252 0.00262619 0.0270933 0.356364 -0.0671764 0.004 300 0 
775 1 1 -0.0111868 -0.00998784 0.0107078 0 0 0 0.00629154 0.00713618 -0.00162745 -0.000656364 0.000873073 -0.00118321 -0.289956 -2.03352 -2.13364 0.004 300 0 
64 1 1 0.000484756 -0.0136994 0.0140704 0 0 0 0.00657224 -0.00487304 0.00587206 0.00212484 0.00198116 0.00263202 -0.751324 -1.40909 0.270669 0.004 300 0 
332 1 1 0.021586 -0.0120833 0.0100829 0 0 0 -0.00474019 -0.00192857 -0.0033487 -0.00296679 -0.000426616 -0.00620878 -0.427333 0.902955 -1.00157 0.004 300 0 
374 1 1 0.0293603 -0.0138445 0.010636 0 0 0 -0.00226768 -0.00223751 -0.000935601 0.00201028 -0.000143809 -0.0012189 -0.278466 -0.533439 0.0954159 0.004 300 0 
388 1 1 -0.0349888 -0.0093502 0.0103686 0 0 0 -0.00074301 -0.00388372 -0.00650744 0.000143616 -0.00234 0.00210525 1.0426 -0.69893 -1.60209 0.004 300 0 