ITEM: TIMESTEP
36000
ITEM: NUMBER OF ATOMS
891
ITEM: BOX BOUNDS mm mm mm
-0.05 0.05
-0.05 0.05
0 0.15
ITEM: ATOMS id type type x y z ix iy iz vx vy vz fx fy fz omegax omegay omegaz radius f_Temp[0] f_heatFlux[0] 
199 1 1 -0.00444377 -0.0458158 0.00397435 0 0 0 -2.96787e-07 -2.01092e-08 -1.17633e-07 -2.25311e-07 2.29879e-08 -3.91125e-08 -3.70318e-05 5.40291e-06 4.43683e-05 0.004 489.219 2.81476 
873 1 1 -0.0201484 -0.0414789 0.0039016 0 0 0 -3.71451e-07 3.73893e-08 -8.30327e-08 -2.70902e-07 1.03174e-07 -1.16463e-07 -2.35157e-05 -5.06934e-05 4.63182e-05 0.004 398.335 4.17361 
485 1 1 -0.0126796 -0.0442534 0.00397264 0 0 0 -2.98741e-07 -2.93632e-08 -1.24931e-07 -2.43785e-07 9.82869e-08 -9.97646e-08 -5.1102e-06 1.0005e-05 2.26535e-05 0.004 433.264 4.38821 
850 1 1 0.00335642 -0.0441759 0.00394115 0 0 0 -4.51653e-07 -2.75545e-07 -1.64001e-07 -1.88243e-07 -8.23096e-09 -5.01115e-08 6.29886e-05 -8.94389e-05 -3.10265e-06 0.004 552.866 0.225162 
186 1 1 0.0114401 -0.0445988 0.00392827 0 0 0 -2.26708e-07 -2.13545e-07 -1.84276e-07 -7.0697e-08 -4.97461e-08 4.1241e-08 5.29661e-06 -7.4025e-05 2.871e-05 0.004 644.669 -3.09309 
560 1 1 0.018969 -0.0420006 0.00394676 0 0 0 -1.12773e-07 -1.75952e-07 -1.17685e-07 -1.14752e-07 -1.98207e-08 1.04866e-07 -3.04514e-06 3.10861e-06 1.32967e-05 0.004 680.369 -3.77415 
102 1 1 -0.0147501 -0.0357331 0.00386311 0 0 0 -6.22275e-07 2.81858e-08 -1.6011e-07 -3.95169e-07 1.14629e-07 -1.61668e-07 -3.71869e-05 -4.38921e-05 -3.36428e-05 0.004 423.557 3.50732 
88 1 1 -0.00730761 -0.0383837 0.00392727 0 0 0 -6.24861e-07 -1.60995e-07 -1.78941e-07 -3.60587e-07 4.94038e-08 -1.30321e-07 4.95484e-05 -3.70179e-05 -1.2557e-05 0.004 471.119 2.7816 
776 1 1 0.00520385 -0.0354368 0.00395023 0 0 0 -5.28665e-07 -5.89718e-07 -5.44736e-07 -2.26347e-07 -1.34345e-07 6.9459e-08 3.39233e-05 -4.96236e-05 1.87411e-05 0.004 599.743 -1.41534 
410 1 1 0.0130236 -0.0368131 0.00392572 0 0 0 -3.21606e-07 -3.88301e-07 -4.15282e-07 -2.24457e-07 -1.02403e-07 1.71737e-07 -8.25481e-06 -4.4386e-05 2.60218e-05 0.004 652.543 -3.03102 
282 1 1 0.025876 -0.0381319 0.00388527 0 0 0 -4.66991e-08 -3.89929e-07 -2.4281e-07 -1.61478e-07 1.82707e-08 2.85301e-07 2.51631e-05 -2.07939e-05 -4.77045e-06 0.004 722.605 -4.04601 
682 1 1 -0.0302016 -0.0348779 0.00393465 0 0 0 -1.57441e-07 9.63599e-08 3.96505e-09 -1.46274e-07 1.4326e-07 1.70465e-08 9.21259e-06 3.54315e-05 1.70451e-05 0.004 348.769 3.42891 
251 1 1 -0.0224189 -0.0338476 0.00392333 0 0 0 -4.94612e-07 1.00985e-07 -1.69846e-07 -3.19122e-07 1.72463e-07 -2.11856e-07 1.55845e-06 -4.58231e-05 1.92219e-05 0.004 382.708 3.80648 
770 1 1 -0.00204753 -0.0321408 0.00393965 0 0 0 -6.12186e-07 -5.09867e-07 -4.71068e-07 -2.64229e-07 4.87138e-08 1.79122e-08 9.17381e-05 3.70964e-05 -0.000163437 0.004 543.861 0.259901 
883 1 1 0.018166 -0.0307536 0.00390023 0 0 0 -1.54109e-07 -8.26397e-07 -7.27999e-07 -3.49488e-07 -1.0379e-08 7.09296e-07 0.000124807 4.37085e-05 -9.15942e-05 0.004 692.427 -3.61789 
838 1 1 0.0320336 -0.033109 0.00396072 0 0 0 8.03094e-08 -3.6741e-07 -3.0358e-07 -2.82268e-07 -4.26027e-08 5.33084e-07 -8.40483e-06 -2.79547e-05 2.32001e-05 0.004 749.206 -3.73396 
617 1 1 -0.0372521 -0.0271215 0.00391646 0 0 0 -1.15653e-07 1.20021e-07 1.45555e-09 -1.64933e-07 1.01535e-07 -5.25857e-08 -2.33776e-05 2.47585e-06 2.39342e-05 0.004 324.292 2.61445 
824 1 1 -0.0292998 -0.0270298 0.00392984 0 0 0 -3.62838e-07 2.66971e-07 5.0004e-08 -3.89952e-07 2.46243e-07 1.01095e-08 -4.08093e-05 -7.57391e-05 2.51181e-05 0.004 338.335 3.11645 
571 1 1 -0.0202615 -0.0262215 0.00393285 0 0 0 -8.13325e-07 2.59964e-07 -7.55502e-08 -4.71438e-07 2.65063e-07 -5.88629e-08 -2.7419e-05 -0.000123785 4.32215e-06 0.004 379.011 3.71824 
861 1 1 -0.00959294 -0.0297304 0.00389699 0 0 0 -9.41898e-07 -2.96823e-09 -4.65996e-07 -4.61486e-07 -1.23326e-08 -6.68203e-08 -6.12069e-05 -0.000141092 0.000102862 0.004 463.191 2.49277 
434 1 1 0.0103455 -0.0293807 0.00393742 0 0 0 -4.49143e-07 -6.24307e-07 -7.0544e-07 -2.67186e-07 -8.04108e-08 2.79512e-07 4.92418e-05 -9.00247e-05 3.47594e-05 0.004 643.072 -2.57737 
103 1 1 0.0311547 -0.0252347 0.00394362 0 0 0 3.3251e-08 -5.58749e-07 -4.66431e-07 -5.4483e-07 -1.76308e-07 8.0584e-07 2.99213e-05 -4.19492e-05 7.63938e-05 0.004 756.976 -3.34239 
769 1 1 -0.041344 -0.0202818 0.0039823 0 0 0 -1.50108e-07 1.02242e-07 -3.98117e-08 -1.56944e-07 5.5375e-08 -7.98015e-08 -1.03544e-05 -3.72166e-06 2.64572e-05 0.004 316.076 2.12005 
94 1 1 -0.0333714 -0.0202163 0.0039437 0 0 0 -3.17569e-07 2.1278e-07 -1.83148e-08 -3.65817e-07 1.55433e-07 -1.04894e-07 1.29959e-05 -2.29241e-05 9.94225e-06 0.004 327.262 2.61337 
40 1 1 -0.025401 -0.0201464 0.00391762 0 0 0 -5.32766e-07 4.08656e-07 -8.42778e-08 -5.28368e-07 1.94751e-07 -1.14134e-07 -1.78996e-05 -4.33932e-05 -9.20429e-06 0.004 349.228 3.20736 
19 1 1 -0.00865071 -0.0218804 0.00393966 0 0 0 -1.13968e-06 8.14638e-08 -7.28906e-07 -5.53487e-07 -1.14707e-07 6.41667e-08 -1.20426e-05 -0.000188369 -5.31413e-05 0.004 465.187 2.40461 
442 1 1 -0.000436961 -0.02185 0.00393584 0 0 0 -1.02757e-06 -2.66556e-07 -1.08141e-06 -3.79966e-07 -2.41656e-07 2.37939e-07 -4.17808e-05 -0.000166838 -6.41766e-05 0.004 552.292 0.0318999 
259 1 1 0.00753192 -0.0220001 0.00392511 0 0 0 -7.28185e-07 -7.56989e-07 -7.7822e-07 -2.43025e-07 -2.40429e-08 3.31521e-07 9.23588e-05 -0.000165964 2.1964e-05 0.004 628.366 -2.1211 
512 1 1 0.0153883 -0.0232356 0.00397834 0 0 0 -1.66678e-07 -8.81677e-07 -6.717e-07 -4.06461e-07 -1.33561e-07 5.16887e-07 5.86527e-05 0.000122729 -0.000105095 0.004 687.835 -3.2744 
470 1 1 0.0232616 -0.0243589 0.00390815 0 0 0 -1.84604e-08 -1.10399e-06 -8.80872e-07 -5.07943e-07 -5.97338e-08 1.11287e-06 0.000200173 -3.8995e-05 4.21092e-05 0.004 729.076 -3.70302 
451 1 1 0.0390293 -0.0244875 0.00392048 0 0 0 4.70317e-08 -1.30096e-07 -1.16429e-07 -3.44155e-07 -1.41573e-07 2.07614e-07 1.10397e-05 -1.95621e-05 1.88301e-05 0.004 774.277 -2.65689 
531 1 1 -0.0164596 -0.0192004 0.00396126 0 0 0 -6.58985e-07 3.52317e-07 -7.80109e-08 -4.95702e-07 1.80849e-07 3.66728e-08 -0.00010052 -0.000146269 -6.69984e-06 0.004 390.078 3.84831 
229 1 1 0.0202059 -0.0169136 0.00386874 0 0 0 2.3419e-07 -1.19213e-06 -1.24896e-06 -7.33659e-07 -6.68667e-08 1.27985e-06 0.000145582 7.94862e-06 -8.4155e-06 0.004 718.708 -3.40316 
734 1 1 0.0280521 -0.017942 0.00394396 0 0 0 -7.15676e-08 -1.06844e-06 -7.41371e-07 -5.5012e-07 -2.93251e-07 7.47444e-07 9.58673e-05 -0.000133892 -3.81015e-05 0.004 756.141 -3.12686 
635 1 1 0.0425981 -0.0174495 0.00392191 0 0 0 1.34166e-07 -8.12506e-08 -1.64306e-07 -3.69171e-07 -8.10573e-08 2.63732e-07 -1.56292e-05 4.15511e-05 -2.51056e-05 0.004 787.484 -1.75304 
87 1 1 -0.0448224 -0.0104639 0.0039142 0 0 0 -1.36586e-08 7.58347e-08 1.60863e-08 -1.20544e-07 8.71447e-08 -4.30907e-08 -7.37778e-06 1.10889e-06 -6.70559e-06 0.004 308.094 1.332 
406 1 1 -0.0373951 -0.013391 0.00396016 0 0 0 -2.22175e-07 2.22941e-07 8.76676e-08 -2.46507e-07 7.06664e-08 -5.55909e-08 5.35572e-07 -6.14868e-05 -1.16726e-05 0.004 315.02 1.92221 
224 1 1 -0.023058 -0.0126019 0.00387961 0 0 0 -4.71241e-07 7.31594e-07 -1.50028e-07 -5.88212e-07 5.19005e-08 -1.0253e-07 -0.000121965 -0.000115107 -1.65437e-05 0.004 362.563 3.13986 
751 1 1 -0.0102996 -0.0141545 0.00396945 0 0 0 -3.69972e-07 2.30741e-07 -4.77933e-07 -4.6381e-07 -1.79273e-07 1.82066e-08 8.76446e-06 0.000127266 -7.64739e-05 0.004 442.461 2.73218 
622 1 1 -0.00273388 -0.0117409 0.00388524 0 0 0 -3.50784e-07 -3.70216e-08 -1.33781e-06 -5.4327e-07 -3.23541e-07 4.07131e-07 7.20011e-05 -3.77605e-05 -2.224e-05 0.004 511.661 1.01723 
128 1 1 0.00951067 -0.010685 0.00388458 0 0 0 4.52464e-07 -7.53386e-07 -1.64805e-06 -7.03158e-07 4.59511e-08 1.12259e-06 0.000134896 6.71151e-05 7.9302e-06 0.004 652.643 -2.56237 
68 1 1 0.0262808 -0.010211 0.00395438 0 0 0 4.48076e-07 -1.02912e-06 -8.60034e-07 -7.09109e-07 -3.97484e-07 9.51562e-07 0.000132695 3.10504e-05 -2.87707e-05 0.004 759.99 -2.97638 
791 1 1 0.0340945 -0.0118532 0.003928 0 0 0 -1.05178e-07 -9.46778e-07 -3.00771e-07 -4.62142e-07 -6.75564e-07 4.80659e-07 9.6089e-05 -6.44327e-05 -0.000232312 0.004 780.031 -2.2637 
354 1 1 -0.0380748 -0.00550396 0.00392042 0 0 0 1.56144e-07 3.33295e-07 1.29554e-07 -3.18463e-07 5.10543e-08 -1.74258e-07 -2.86981e-05 5.87678e-05 -3.13197e-05 0.004 313.388 1.70025 
725 1 1 -0.0304901 -0.00800531 0.0039252 0 0 0 -2.44238e-07 2.6528e-07 -1.67963e-08 -4.23906e-07 1.20262e-07 -4.70961e-08 1.50276e-05 -6.32703e-05 -0.000127566 0.004 324.699 2.33409 
353 1 1 -0.0161288 -0.00879809 0.00391144 0 0 0 -1.04134e-07 6.22547e-07 -3.01053e-07 -4.17581e-07 -2.21811e-07 1.35983e-07 -0.00018175 4.93018e-06 -4.11521e-05 0.004 402.08 3.08116 
391 1 1 -0.00857661 -0.00639748 0.00391357 0 0 0 4.38007e-08 2.91723e-07 -7.5991e-07 -1.41104e-07 -4.61709e-07 2.97479e-07 -7.55281e-05 3.39073e-05 -5.78395e-05 0.004 460.706 2.26943 
683 1 1 0.0173533 -0.00945628 0.00390985 0 0 0 5.02102e-07 -9.67178e-07 -1.21338e-06 -7.32845e-07 -4.0505e-08 1.12613e-06 0.000174731 1.96903e-05 -0.000105308 0.004 709.14 -3.35714 
690 1 1 0.0385537 -0.00520142 0.00390021 0 0 0 7.58441e-09 -5.4626e-07 -6.16987e-07 -3.76747e-07 -6.75865e-07 7.00759e-07 6.53912e-05 -3.59006e-05 8.07434e-05 0.004 788.606 -1.55862 
10 1 1 0.0449635 -0.00990888 0.00397399 0 0 0 1.69015e-07 -2.07537e-07 -2.14091e-07 -1.00874e-07 -3.59522e-08 2.40573e-08 5.16989e-05 -1.45704e-05 1.03238e-05 0.004 792.372 -1.27338 
402 1 1 -0.0460169 -0.00264172 0.00392182 0 0 0 1.08779e-07 9.99583e-08 5.36826e-08 -1.75994e-07 7.38368e-08 -1.71909e-07 -3.4643e-06 5.32527e-06 5.95055e-06 0.004 308.382 1.29699 
761 1 1 -0.0294744 -0.000168337 0.00392563 0 0 0 3.09721e-07 4.79463e-07 1.13546e-07 -3.73419e-07 1.96512e-09 -2.42977e-07 -3.17061e-05 4.88151e-05 8.05968e-06 0.004 334.875 2.59344 
293 1 1 -0.0229324 -0.00466873 0.0039595 0 0 0 1.75942e-07 7.36951e-07 -2.23194e-07 -4.75503e-07 -1.14176e-07 -6.87047e-08 -4.93268e-05 8.97817e-05 -4.22471e-05 0.004 361.084 3.15992 
384 1 1 -0.0146988 -0.000878173 0.0039815 0 0 0 0.000482433 0.000450356 1.13306e-09 7.02229e-14 6.58465e-14 -4.43086e-11 -0.11285 0.120888 0.176243 0.004 302.583 0 
378 1 1 0.0013061 -0.00490406 0.00392906 0 0 0 3.14331e-07 -1.24628e-07 -8.554e-07 -2.69224e-07 -3.27085e-07 4.39636e-07 0.000125614 0.000149323 -8.97859e-05 0.004 555.938 -0.158075 
390 1 1 0.0103707 -0.00276531 0.00396885 0 0 0 5.27438e-07 -7.27881e-07 -9.51317e-07 -4.47199e-07 -5.92051e-10 6.70942e-07 0.000122269 0.000114199 -6.15618e-05 0.004 667.841 -3.10604 
411 1 1 0.0223603 -0.00329286 0.00397624 0 0 0 3.43121e-07 -8.83655e-07 -1.17882e-06 -1.93957e-07 -3.6815e-07 1.10145e-06 -8.70704e-05 8.53561e-05 0.000106323 0.004 743.654 -3.39558 
342 1 1 0.0307348 -0.00361665 0.00397528 0 0 0 2.75076e-07 -9.81301e-07 -5.50011e-07 -6.56068e-07 -3.09078e-07 5.24061e-07 6.64327e-05 5.27682e-05 -8.42167e-06 0.004 779.878 -2.19013 
262 1 1 0.0460221 -0.00206505 0.00395833 0 0 0 3.35124e-07 -1.08745e-07 -2.8678e-07 -1.09765e-07 -2.11583e-07 6.41189e-08 -6.83805e-05 2.73378e-05 -5.09692e-05 0.004 792.694 -1.23297 
261 1 1 -0.0398214 0.002246 0.00393476 0 0 0 2.15357e-07 2.66359e-07 1.11357e-07 -3.08283e-07 4.53965e-08 -2.82257e-07 -1.76741e-05 1.11898e-05 1.98625e-05 0.004 313.841 1.65746 
666 1 1 -0.00454675 0.000451428 0.00395604 0 0 0 3.333e-07 3.96697e-07 -8.87928e-07 -1.96904e-08 -6.72937e-07 3.4037e-07 -7.55376e-05 -5.10958e-05 1.53796e-05 0.004 500.543 1.4021 
815 1 1 0.00434368 0.0024356 0.00392711 0 0 0 8.29029e-07 -2.77784e-07 -5.74451e-07 -3.78153e-07 -3.95273e-07 4.21778e-07 -2.06862e-05 0.000173916 -4.96334e-05 0.004 602.773 -1.43818 
306 1 1 0.01637 0.00247667 0.00395809 0 0 0 3.4555e-07 -7.1725e-07 -9.63438e-07 -9.22652e-08 -5.40329e-07 8.03508e-07 0.000185958 0.000113085 0.000136473 0.004 714.981 -3.72602 
178 1 1 0.0241042 0.00444176 0.00386113 0 0 0 3.86586e-07 -7.49737e-07 -1.27486e-06 -3.36155e-08 -3.94392e-07 1.21048e-06 0.000193763 6.48188e-05 -0.000140762 0.004 747.027 -3.25024 
862 1 1 0.0320656 0.00423368 0.00393096 0 0 0 3.9111e-07 -1.09959e-06 -8.32909e-07 -2.32511e-07 -3.36851e-07 9.0885e-07 0.000125976 -4.1692e-05 8.44683e-05 0.004 774.444 -2.37666 
661 1 1 0.0398756 0.0029147 0.0039468 0 0 0 4.41252e-07 -2.72751e-07 -5.67475e-07 -3.54388e-07 -6.42306e-07 4.90026e-07 -2.65388e-05 2.96859e-05 6.07551e-05 0.004 787.884 -1.60324 
677 1 1 -0.0453782 0.00788539 0.00393641 0 0 0 1.32367e-07 1.26367e-07 5.58916e-08 -1.37094e-07 4.34907e-08 -1.55939e-07 -1.81588e-05 1.88983e-05 5.49657e-06 0.004 308.638 1.3421 
12 1 1 -0.0333161 0.0067196 0.00393696 0 0 0 2.68533e-07 4.0667e-07 9.00486e-08 -3.32075e-07 -2.37218e-08 -3.09341e-07 -5.59419e-05 1.06433e-05 2.04472e-05 0.004 326.632 2.29356 
420 1 1 -0.0254 0.00664838 0.00392687 0 0 0 3.90641e-07 6.9014e-07 7.62283e-08 -3.60459e-07 -1.57034e-07 -2.00036e-07 -8.63291e-05 3.0831e-05 3.79478e-05 0.004 351.646 2.92013 
654 1 1 -0.0175134 0.00720947 0.00387212 0 0 0 5.63793e-07 9.42029e-07 -1.8067e-07 -3.47342e-07 -4.70152e-07 -1.51352e-07 -0.000141 0.00011072 2.85243e-05 0.004 391.865 3.12958 
145 1 1 -0.00454407 0.00836537 0.00386311 0 0 0 8.06182e-07 3.06041e-07 -5.60126e-07 -2.42923e-07 -7.38493e-07 4.13549e-07 5.47493e-05 0.00012596 -9.13677e-05 0.004 499.321 1.47368 
624 1 1 0.0451449 0.00890654 0.00390657 0 0 0 5.19448e-07 -1.16198e-07 -3.8509e-07 -4.99355e-07 -3.93664e-07 4.60429e-07 2.97646e-05 9.87428e-05 -3.69252e-05 0.004 791.017 -1.39948 
613 1 1 -0.0372991 0.0135339 0.00384344 0 0 0 3.52945e-07 2.67365e-07 1.73795e-07 -2.63052e-07 -1.90126e-08 -3.0985e-07 -1.11074e-05 7.8955e-05 -3.17342e-05 0.004 317.537 1.98387 
265 1 1 -0.0293062 0.0135429 0.00396372 0 0 0 3.49326e-07 4.49365e-07 2.78226e-08 -2.18199e-07 -1.34795e-07 -1.68519e-07 3.29787e-07 3.16916e-05 2.42435e-06 0.004 337.732 2.85023 
273 1 1 -0.0213694 0.0141274 0.00392939 0 0 0 4.76493e-07 6.16989e-07 -1.01245e-07 -1.4564e-07 -3.01096e-07 -1.1156e-07 -3.12578e-05 4.65161e-05 -3.53567e-06 0.004 363.749 3.29741 
492 1 1 -0.01145 0.0123712 0.00398079 0 0 0 7.0937e-07 6.77187e-07 -2.29051e-07 -2.58575e-07 -5.58997e-07 2.99738e-08 9.38258e-07 2.06164e-05 -3.25284e-05 0.004 440.725 3.07462 
234 1 1 0.00585285 0.010393 0.0039289 0 0 0 1.02468e-06 -1.08776e-07 -7.1162e-07 -4.70894e-07 -5.85915e-07 4.90371e-07 8.58629e-05 0.000126735 4.76246e-05 0.004 597.781 -1.10952 
160 1 1 0.0142843 0.0106356 0.00390957 0 0 0 1.02154e-06 -2.89087e-07 -9.02566e-07 -4.87393e-07 -7.24189e-07 7.03991e-07 6.34084e-05 0.000175586 -8.90867e-05 0.004 684.177 -2.95805 
484 1 1 0.0220893 0.0120738 0.00390119 0 0 0 7.3993e-07 -4.81769e-07 -9.25926e-07 -2.78728e-07 -6.57684e-07 8.37957e-07 2.47322e-05 1.60626e-05 4.27502e-05 0.004 733.849 -3.25559 
743 1 1 0.0300184 0.0126216 0.00398126 0 0 0 5.53616e-07 -4.92376e-08 -3.87096e-07 -2.41741e-07 -1.17283e-06 1.39467e-07 2.30954e-05 -3.52836e-05 7.66808e-05 0.004 761.432 -2.84155 
514 1 1 0.0379536 0.0130186 0.00386905 0 0 0 6.60727e-07 -2.19555e-07 -6.9082e-07 -4.04794e-07 -7.83186e-07 7.45337e-07 -1.56902e-06 0.000138042 -0.000141389 0.004 780.69 -2.08845 
530 1 1 -0.0159002 0.0198648 0.00392796 0 0 0 6.47719e-07 5.07002e-07 2.41089e-08 -8.95785e-08 -3.55396e-07 7.02506e-08 -4.30209e-05 0.000121544 3.021e-05 0.004 392.515 3.41146 
227 1 1 -0.00736503 0.0192084 0.00396595 0 0 0 8.09301e-07 4.36357e-07 -1.51224e-07 -1.49537e-07 -6.35978e-07 2.38368e-07 -2.44241e-05 5.95513e-05 -1.51129e-05 0.004 477.643 2.3197 
392 1 1 -0.000498626 0.0151513 0.00394446 0 0 0 1.01057e-06 4.2232e-08 -3.68715e-07 -1.89601e-07 -6.68225e-07 4.03812e-07 3.13142e-05 7.24703e-05 -3.80316e-05 0.004 536.477 0.608795 
493 1 1 0.0098584 0.0172532 0.00394646 0 0 0 9.47553e-07 5.96211e-08 -7.1723e-07 -3.65009e-07 -8.32412e-07 5.79835e-07 -6.19841e-05 7.35793e-05 -2.18669e-05 0.004 639.047 -2.03675 
34 1 1 0.0176357 0.0187852 0.00394099 0 0 0 8.05439e-07 -9.85942e-08 -9.20935e-07 -1.8507e-07 -8.52893e-07 7.79144e-07 -2.69478e-06 7.65685e-05 -4.99474e-05 0.004 696.743 -2.98127 
206 1 1 0.0255397 0.0192353 0.00396992 0 0 0 5.87017e-07 -2.37625e-07 -6.69452e-07 -1.24001e-07 -7.29059e-07 6.01751e-07 -1.85622e-05 -7.92022e-05 -1.56055e-05 0.004 741.574 -3.15473 
104 1 1 0.0334175 0.0199346 0.00389649 0 0 0 6.81755e-07 -1.95099e-07 -6.57319e-07 -4.26027e-07 -7.26569e-07 6.57829e-07 2.75012e-05 0.00013424 2.57659e-05 0.004 766.758 -2.74272 
809 1 1 -0.0412058 0.0204949 0.00395497 0 0 0 1.7577e-07 1.52417e-07 1.20393e-07 -8.19616e-08 -1.11698e-08 -1.24028e-07 -2.80276e-05 4.92678e-06 2.6417e-05 0.004 312.784 1.82346 
773 1 1 -0.0331523 0.0204531 0.00393522 0 0 0 3.92286e-07 3.12211e-07 2.03235e-07 -1.41254e-07 -3.95565e-08 -2.39874e-07 -3.81805e-05 6.39034e-05 1.65105e-05 0.004 329.126 2.77626 
792 1 1 0.00347678 0.0219735 0.00392105 0 0 0 8.27841e-07 1.14551e-07 -3.28095e-07 -2.34722e-07 -7.25919e-07 2.64093e-07 1.43962e-05 0.00011842 7.11152e-05 0.004 582.049 -0.702053 
718 1 1 0.0413199 0.0203659 0.00392988 0 0 0 3.99497e-07 -1.28832e-07 -4.291e-07 -2.63689e-07 -3.98691e-07 4.2335e-07 5.20691e-05 -9.7837e-06 2.69488e-05 0.004 780.239 -2.23674 
101 1 1 -0.0371146 0.0272995 0.00390402 0 0 0 2.16933e-07 1.39266e-07 8.57647e-08 -7.02549e-08 3.6902e-08 -1.14418e-07 -1.89152e-05 3.72008e-05 1.35338e-05 0.004 322.606 2.5208 
246 1 1 -0.0290567 0.0272807 0.00398271 0 0 0 3.20101e-07 1.87431e-07 9.09934e-08 7.94866e-08 -8.44716e-08 -3.26102e-08 -1.0482e-06 3.30433e-06 -1.87603e-05 0.004 334.898 3.22772 
331 1 1 -0.0212281 0.0257798 0.00390018 0 0 0 4.3519e-07 3.60274e-07 1.1881e-07 -9.75557e-09 -2.57155e-07 -4.08579e-08 -7.67466e-05 6.53474e-05 4.94632e-05 0.004 365.448 3.47498 
846 1 1 -0.0134708 0.0274168 0.0039748 0 0 0 6.26155e-07 2.94334e-07 -7.96419e-08 1.36648e-07 -5.09168e-07 1.8185e-07 3.18643e-05 3.49458e-05 -7.42229e-05 0.004 413.056 3.1031 
348 1 1 -0.00329916 0.0260612 0.00393374 0 0 0 8.35999e-07 1.6245e-07 -1.0263e-07 3.72552e-09 -6.26095e-07 2.57139e-07 -2.27351e-05 8.4689e-05 -3.62461e-05 0.004 519.573 1.02912 
786 1 1 0.00840353 0.0281551 0.00389684 0 0 0 6.1519e-07 3.10914e-08 -4.17151e-07 -9.05879e-08 -7.53529e-07 5.2014e-07 7.42829e-06 8.70833e-05 -5.74636e-05 0.004 623.619 -1.90371 
316 1 1 0.0162833 0.0272928 0.00390629 0 0 0 5.41708e-07 -4.18434e-08 -4.73212e-07 -2.46447e-08 -7.29369e-07 4.89346e-07 4.35439e-05 3.5552e-05 3.01341e-05 0.004 689.783 -3.30561 
495 1 1 0.0288861 0.0264618 0.00396715 0 0 0 5.27758e-07 -2.2697e-07 -4.26206e-07 -2.16024e-07 -5.17763e-07 4.78187e-07 -6.67125e-06 8.87403e-06 -1.31405e-05 0.004 754.275 -3.27879 
863 1 1 0.0367263 0.0277633 0.00392936 0 0 0 3.74248e-07 -1.33276e-07 -2.77853e-07 -1.52138e-07 -3.28228e-07 2.75867e-07 4.82714e-05 4.8896e-05 5.88201e-05 0.004 773.292 -2.79091 
511 1 1 -0.00761835 0.0327132 0.00388553 0 0 0 6.62821e-07 8.1334e-08 9.48735e-08 1.50086e-07 -6.12685e-07 4.11064e-07 2.88717e-05 0.000107444 5.25465e-05 0.004 486.832 1.77134 
722 1 1 0.00164033 0.0322874 0.00396635 0 0 0 6.40323e-07 1.60202e-07 -1.90724e-07 -6.6506e-08 -6.48463e-07 3.75441e-07 -2.45374e-05 6.45582e-05 4.4969e-05 0.004 565.756 -0.365062 
2 1 1 0.0229311 0.031696 0.00396243 0 0 0 5.12709e-07 -1.46299e-07 -4.30801e-07 -1.58667e-07 -3.88138e-07 4.62538e-07 4.32144e-05 6.35747e-05 8.88205e-06 0.004 723.104 -3.84703 
254 1 1 0.0304988 0.0343911 0.0039815 0 0 0 0.000481608 -0.000706171 -3.2077e-12 -1.96508e-16 2.88531e-16 -3.79277e-12 0.176952 0.120681 -0.0211551 0.004 798.547 0 
257 1 1 -0.0296322 0.0352231 0.00395613 0 0 0 2.18027e-07 1.3329e-07 8.73702e-08 1.35015e-07 6.77742e-09 -5.5768e-08 -2.10533e-05 3.80768e-05 6.32678e-05 0.004 337.669 3.53412 
582 1 1 -0.0157655 0.0356206 0.00393205 0 0 0 5.51365e-07 -4.57544e-08 4.98663e-08 3.47294e-07 -4.42017e-07 9.90482e-08 1.04445e-05 0.000138216 -1.22885e-05 0.004 382.846 4.24563 
255 1 1 -0.00267125 0.038932 0.00391147 0 0 0 4.10167e-07 1.1543e-07 -1.49081e-07 -1.02983e-09 -4.72753e-07 5.22445e-07 -2.72057e-05 8.54143e-05 1.61803e-05 0.004 522.035 0.873388 
887 1 1 0.00812084 0.0373183 0.00392888 0 0 0 4.53825e-07 1.11285e-07 -2.79634e-07 -1.09233e-07 -5.71361e-07 3.35371e-07 -2.88425e-07 7.50729e-05 -8.37481e-06 0.004 641.401 -2.91421 
719 1 1 0.0157853 0.0351951 0.00398363 0 0 0 3.07695e-07 -4.78437e-08 -2.09992e-07 -3.73255e-08 -3.69427e-07 3.45546e-07 1.64663e-05 -2.06896e-05 9.43523e-06 0.004 690.987 -3.78281 
21 1 1 0.0234243 0.0396338 0.00391497 0 0 0 1.71668e-07 -4.86152e-08 -1.63342e-07 -5.56372e-08 -2.01204e-07 2.01094e-07 2.21716e-05 2.42982e-05 3.67597e-05 0.004 725.701 -4.07867 
325 1 1 -0.0222388 0.0402984 0.00393951 0 0 0 2.49765e-07 1.15437e-07 9.56615e-08 2.17451e-07 -1.26985e-07 1.26096e-07 -4.94548e-05 2.62326e-05 4.80625e-05 0.004 371.086 4.29701 
595 1 1 -0.014931 0.0435393 0.00398254 0 0 0 2.26618e-07 1.33786e-08 9.60345e-09 1.03421e-07 -1.54204e-07 1.69133e-07 -3.7452e-06 2.50456e-05 3.97551e-05 0.004 406.514 4.01774 
568 1 1 0.0162912 0.0430934 0.00392629 0 0 0 1.72009e-07 2.05982e-08 -1.32522e-07 -2.27013e-08 -2.27608e-07 1.71136e-07 -8.24184e-06 5.59934e-06 -1.24991e-05 0.004 687.658 -3.72585 
387 1 1 -0.00719691 0.045487 0.00389932 0 0 0 1.41827e-07 3.24072e-08 -8.01893e-08 -4.2378e-08 -2.59312e-07 3.13642e-07 2.89836e-06 1.94585e-05 1.8265e-05 0.004 489.906 1.8778 
852 1 1 0.000758888 0.0460615 0.00397617 0 0 0 1.62123e-07 3.92083e-08 -1.08878e-07 -4.9861e-08 -1.54313e-07 2.87403e-07 3.18881e-05 -9.74373e-06 2.00133e-05 0.004 554.774 -0.153574 
157 1 1 0.00865318 0.0452493 0.00389824 0 0 0 2.43143e-07 1.1376e-07 -1.4571e-07 -1.4865e-07 -3.52121e-07 2.93115e-07 -5.43446e-06 3.81164e-05 2.69573e-05 0.004 631.516 -2.50187 
400 1 1 -0.024752 -0.0387964 0.00974418 0 0 0 -3.34599e-07 1.95764e-07 4.51186e-08 -3.80851e-07 2.4043e-07 -1.03101e-07 -2.21575e-05 7.93542e-05 -1.7436e-06 0.004 366.929 4.14496 
606 1 1 -0.000653932 -0.0387266 0.00813891 0 0 0 -9.77671e-07 -5.71045e-07 -6.81868e-07 -6.1322e-07 -1.82581e-07 -2.0005e-07 -3.86307e-05 -9.05344e-06 -1.14977e-05 0.004 548.491 0.269154 
724 1 1 -0.0339143 -0.0311598 0.00984801 0 0 0 -1.67046e-07 2.23301e-07 1.62608e-07 -4.41234e-07 1.80989e-07 5.64552e-08 -1.16573e-05 -5.16161e-05 2.06692e-05 0.004 332.247 2.97645 
183 1 1 0.0251947 -0.0311656 0.00751474 0 0 0 -4.1927e-09 -9.60957e-07 -9.77828e-07 -5.76603e-07 -2.47635e-07 1.35019e-06 -0.000101965 5.11047e-06 1.55256e-05 0.004 731.929 -3.81238 
544 1 1 -0.0140217 -0.0253028 0.00874964 0 0 0 -1.43002e-06 3.88171e-07 -7.99987e-07 -1.01034e-06 2.3552e-07 -3.23824e-08 -9.81973e-05 0.000125331 -5.96791e-05 0.004 419.001 3.19246 
29 1 1 -0.00450627 -0.0263793 0.00900728 0 0 0 -1.70985e-06 -1.90215e-07 -1.39072e-06 -1.01653e-06 -1.19552e-07 2.44967e-07 8.33121e-05 9.75006e-05 -6.43347e-05 0.004 497.952 1.59618 
248 1 1 0.00349902 -0.0278426 0.00763307 0 0 0 -9.06359e-07 -8.18065e-07 -1.99721e-06 -4.08001e-07 -2.62986e-07 6.35137e-07 -0.000384083 -9.94041e-05 0.000103976 0.004 586.875 -1.07996 
79 1 1 0.035837 -0.0289489 0.00959646 0 0 0 6.96783e-09 -4.24796e-07 -3.07419e-07 -4.30118e-07 6.20421e-08 7.58527e-07 3.18705e-05 -7.19342e-05 6.7385e-05 0.004 764.625 -3.13163 
291 1 1 -0.0045887 -0.0173975 0.00909523 0 0 0 -1.08551e-06 1.78244e-07 -2.00139e-06 -8.3206e-07 -3.30051e-07 3.23964e-07 -0.00012934 0.000184963 -0.000129891 0.004 508.137 1.09827 
891 1 1 0.0037349 -0.015528 0.00632507 0 0 0 -4.18112e-07 -5.73237e-07 -1.98718e-06 -5.95938e-07 -2.12629e-07 1.03986e-06 -8.61171e-05 -1.11634e-05 -0.000198199 0.004 586.082 -0.970645 
870 1 1 0.0138323 -0.0156364 0.00831015 0 0 0 3.22178e-07 -1.60437e-06 -2.754e-06 -1.58039e-06 -1.65971e-07 2.17898e-06 0.000118691 -0.000180797 -0.000118151 0.004 675.638 -3.05192 
777 1 1 0.034969 -0.018778 0.00771 0 0 0 -4.19541e-07 -1.05758e-06 -3.08399e-07 -5.37619e-07 -5.32941e-07 3.28657e-07 5.6254e-05 -9.68482e-07 0.000246296 0.004 775.452 -2.56697 
837 1 1 -0.029449 -0.0146727 0.00803326 0 0 0 -5.44067e-07 5.78195e-07 -1.14417e-07 -7.22456e-07 2.63939e-07 -1.13516e-07 -5.96026e-05 6.18638e-05 0.000100906 0.004 334.911 2.67204 
445 1 1 -0.0181358 -0.0138493 0.00995276 0 0 0 -8.57985e-07 1.15488e-06 -8.77347e-07 -1.23604e-06 3.47449e-08 5.75821e-08 -1.99737e-06 0.000142638 -0.000112502 0.004 388.455 3.20027 
783 1 1 0.00485901 -0.00860657 0.00993767 0 0 0 7.24605e-07 -9.97169e-07 -2.62445e-06 -1.2605e-06 -1.18803e-07 1.80511e-06 0.0001158 -1.03618e-05 -8.17002e-05 0.004 599.498 -1.31575 
615 1 1 -0.0350999 -0.000758715 0.00955182 0 0 0 4.29829e-07 8.19149e-07 1.7175e-07 -7.12659e-07 1.55651e-07 -4.12356e-07 -5.42435e-05 8.47124e-06 3.0578e-05 0.004 319.518 1.94147 
476 1 1 -0.0459521 0.00262139 0.00988978 0 0 0 1.66807e-07 1.66113e-07 7.01158e-08 -2.22882e-07 1.1262e-07 -2.42633e-07 6.79793e-06 1.04264e-05 -1.4765e-05 0.004 306.935 1.17405 
16 1 1 -0.0210456 0.00169438 0.00830926 0 0 0 6.00278e-07 1.3047e-06 -1.98063e-07 -7.44651e-07 -2.91565e-07 -1.45299e-07 2.03244e-05 3.44773e-05 9.36152e-07 0.004 369.564 3.11148 
303 1 1 0.0459492 0.00350464 0.00962656 0 0 0 5.40164e-07 -4.29769e-07 -8.94896e-07 -5.12664e-07 -6.87575e-07 8.60885e-07 7.70593e-05 -0.00019645 7.33193e-05 0.004 791.776 -1.31428 
523 1 1 -0.0389797 0.0080308 0.00932861 0 0 0 4.95283e-07 4.76066e-07 2.38139e-07 -5.27907e-07 8.2512e-08 -5.57995e-07 -2.02573e-05 5.23197e-05 8.86863e-06 0.004 314.29 1.71294 
704 1 1 -0.010798 0.00519222 0.00743859 0 0 0 9.2966e-07 1.1295e-06 -1.11805e-06 -5.81735e-07 -8.91264e-07 1.54591e-07 0.000109052 9.56916e-05 -0.000143319 0.004 440.822 2.59939 
454 1 1 0.00101182 0.00715932 0.00933955 0 0 0 1.72167e-06 2.31856e-07 -1.15105e-06 -9.85025e-07 -1.37526e-06 1.04157e-06 -0.000158833 3.28249e-05 -8.32656e-05 0.004 554.432 -0.0474836 
31 1 1 0.0102165 0.00547591 0.00832589 0 0 0 1.59091e-06 -6.71163e-07 -1.79601e-06 -1.04667e-06 -6.56444e-07 1.27244e-06 0.000141198 6.51575e-05 -3.20377e-05 0.004 644.407 -2.31904 
135 1 1 0.0188886 0.0074917 0.00960782 0 0 0 1.7258e-06 -8.43037e-07 -1.8626e-06 -7.03591e-07 -1.16274e-06 1.73249e-06 -0.000112243 0.000357533 -0.000180751 0.004 726.587 -3.62525 
712 1 1 0.0281139 0.00743268 0.00998853 0 0 0 1.53652e-06 -8.82094e-07 -2.36166e-06 -6.87138e-07 -1.3053e-06 2.56862e-06 -0.000350778 0.000194639 -0.000101569 0.004 759.519 -2.95436 
210 1 1 0.0394934 0.00814607 0.00989879 0 0 0 1.44915e-06 -6.37294e-07 -1.29743e-06 -1.0733e-06 -9.53535e-07 1.41255e-06 8.854e-05 0.000233157 1.48929e-05 0.004 786.453 -1.72723 
651 1 1 -0.0437987 0.0143398 0.00823566 0 0 0 2.87315e-07 2.11028e-07 1.81247e-07 -2.30665e-07 1.18089e-08 -2.98288e-07 6.08447e-06 -2.08194e-05 2.26203e-05 0.004 311.056 1.58733 
621 1 1 0.0437182 0.0147846 0.00900764 0 0 0 7.66213e-07 -3.0975e-07 -7.06386e-07 -4.70155e-07 -5.60932e-07 7.04664e-07 5.01654e-05 -9.45952e-05 0.000107953 0.004 785.076 -1.8461 
726 1 1 -0.0257657 0.0199972 0.00692824 0 0 0 7.13237e-07 4.84487e-07 3.19968e-07 -1.99942e-07 -2.9633e-07 -1.89391e-07 9.3731e-05 4.3983e-05 -3.70598e-05 0.004 346.921 3.22381 
230 1 1 -0.00847466 0.024595 0.00973775 0 0 0 1.69325e-06 9.49903e-07 5.52342e-08 -1.26433e-07 -1.42455e-06 6.75452e-07 -5.81817e-06 7.87257e-05 -0.000190538 0.004 477.626 2.05107 
320 1 1 -0.00171265 0.020405 0.00979385 0 0 0 1.84712e-06 3.51824e-07 -4.65733e-07 -4.6029e-07 -1.29553e-06 7.94287e-07 -8.09872e-05 7.43754e-05 -1.42156e-05 0.004 533.8 0.693826 
7 1 1 0.0129211 0.0224303 0.00918516 0 0 0 1.61647e-06 -1.22016e-07 -1.23281e-06 -5.04556e-07 -1.26187e-06 1.08318e-06 9.26597e-05 0.000107817 6.88626e-05 0.004 668.063 -2.8059 
83 1 1 0.0214164 0.0239651 0.00888424 0 0 0 1.25002e-06 -3.49327e-07 -1.26252e-06 -3.60233e-07 -1.14837e-06 1.23348e-06 0.000139877 0.000204098 7.57522e-05 0.004 729.731 -3.4215 
747 1 1 -0.0337321 0.0313835 0.00974072 0 0 0 4.64022e-07 1.91425e-07 2.41444e-07 3.83913e-08 -2.0693e-08 -2.92898e-07 2.5548e-06 -9.77295e-06 4.36349e-05 0.004 334.687 3.06738 
51 1 1 -0.0226192 0.0329654 0.00703451 0 0 0 4.72258e-07 3.38661e-07 1.21524e-07 1.69292e-07 -2.56213e-07 8.71309e-09 2.7519e-05 -2.59794e-05 -3.25429e-05 0.004 356.668 3.91648 
116 1 1 -0.00940735 0.0391203 0.00809816 0 0 0 6.72832e-07 1.36359e-07 1.99459e-07 1.57258e-07 -7.98549e-07 8.41126e-07 -9.69693e-05 6.64882e-05 8.41563e-05 0.004 478.964 2.11969 
205 1 1 -0.000560451 -0.0460776 0.0110171 0 0 0 -6.17328e-07 -2.00159e-07 -2.58342e-07 -5.59945e-07 -1.26174e-07 -3.03094e-07 -9.98006e-05 -7.7736e-05 0.000101641 0.004 549.62 0.352341 
836 1 1 0.00737986 -0.0454688 0.0106611 0 0 0 -4.79243e-07 -3.12464e-07 -3.06701e-07 -3.63639e-07 -1.10053e-07 1.07012e-08 -6.25121e-05 4.72465e-05 2.93091e-05 0.004 601.42 -1.59194 
486 1 1 -0.0156916 -0.0402432 0.0103352 0 0 0 -8.92186e-07 5.82766e-08 -1.06096e-07 -6.10657e-07 4.19302e-08 -3.19375e-07 1.50039e-05 -4.62815e-06 2.52307e-05 0.004 411.525 4.00468 
311 1 1 -0.0083681 -0.0439882 0.0106791 0 0 0 -9.34679e-07 -1.69784e-07 -1.39754e-07 -9.21082e-07 3.31404e-08 -1.33618e-07 5.81059e-05 -0.000135188 0.000114009 0.004 463.834 3.87525 
447 1 1 0.0180551 -0.0423881 0.0118323 0 0 0 -3.59977e-07 -2.66325e-07 -2.15723e-07 -3.23023e-07 -3.46227e-08 2.56003e-07 -4.60334e-05 -7.22267e-05 3.6648e-05 0.004 673.501 -3.5863 
538 1 1 -0.0295743 -0.035351 0.0149849 0 0 0 -3.44398e-07 3.38749e-07 3.30035e-07 -6.84344e-07 2.17293e-07 3.96872e-10 1.63896e-05 -4.91097e-05 4.91213e-05 0.004 346.349 3.48626 
279 1 1 0.011155 -0.0385417 0.0114152 0 0 0 -8.78187e-07 -7.42372e-07 -9.44835e-07 -6.40239e-07 -1.24135e-07 3.76492e-07 -1.42641e-05 -0.000105677 6.7118e-05 0.004 636.301 -2.55633 
110 1 1 0.0250464 -0.0386627 0.0117241 0 0 0 -1.56388e-07 -4.08281e-07 -3.54688e-07 -3.51867e-07 2.57721e-08 4.80037e-07 -6.07245e-05 3.66377e-05 -1.83541e-05 0.004 713.525 -3.99071 
188 1 1 -0.0179041 -0.0321007 0.0101564 0 0 0 -1.19325e-06 4.23581e-07 -1.29205e-07 -1.05611e-06 3.27185e-07 -3.08704e-07 -5.26352e-05 -3.05157e-05 9.19909e-05 0.004 398.109 3.57813 
810 1 1 -0.0102601 -0.034451 0.0102036 0 0 0 -1.34517e-06 4.97981e-08 -3.88474e-07 -9.80593e-07 1.23739e-07 -1.61977e-07 -4.46013e-05 -3.74853e-05 1.92775e-06 0.004 451.758 2.88007 
412 1 1 -0.00316743 -0.0328806 0.0133526 0 0 0 -1.58613e-06 -3.87501e-07 -1.36321e-06 -1.29258e-06 -1.42959e-07 1.13497e-07 -7.35802e-05 0.000100369 -6.84099e-05 0.004 510.04 1.29112 