ITEM: TIMESTEP
29600
ITEM: NUMBER OF ATOMS
891
ITEM: BOX BOUNDS mm mm mm
-0.05 0.05
-0.05 0.05
0 0.15
ITEM: ATOMS id type type x y z ix iy iz vx vy vz fx fy fz omegax omegay omegaz radius f_Temp[0] f_heatFlux[0] 
199 1 1 -0.00444377 -0.0458158 0.00397434 0 0 0 2.29488e-07 -9.24543e-07 -1.48532e-06 -7.24408e-07 9.31895e-08 2.46316e-07 -0.000130564 7.73682e-05 -0.000108778 0.004 461.004 4.93911 
873 1 1 -0.0201484 -0.0414789 0.0039016 0 0 0 -7.41722e-07 -7.83113e-07 -1.37944e-06 -6.04507e-07 -8.20407e-08 -1.84249e-07 -0.00019997 -7.18744e-05 5.00692e-05 0.004 359.992 6.21665 
485 1 1 -0.0126796 -0.0442534 0.00397264 0 0 0 9.73962e-09 -9.26835e-07 -1.34332e-06 -6.56265e-07 2.37147e-08 5.68285e-10 -4.33583e-05 0.000287124 -0.00015368 0.004 389.461 7.65979 
850 1 1 0.00335642 -0.0441759 0.00394115 0 0 0 -4.20791e-07 -1.62284e-06 -1.73136e-06 -8.72096e-07 -4.2748e-08 1.00929e-06 0.000234642 -0.000206726 0.000296257 0.004 552.668 -0.583686 
186 1 1 0.0114401 -0.0445988 0.00392826 0 0 0 -5.93906e-08 -7.89214e-07 -9.65604e-07 -7.11798e-07 -9.3601e-08 6.88781e-07 2.13476e-05 -0.000121055 3.91497e-05 0.004 677.302 -6.21846 
560 1 1 0.018969 -0.0420006 0.00394675 0 0 0 1.75029e-07 -6.02245e-07 -7.02403e-07 -8.20017e-07 4.96508e-08 7.2872e-07 4.27031e-06 -2.57336e-06 4.60791e-05 0.004 717.268 -6.45845 
102 1 1 -0.0147501 -0.0357331 0.00386311 0 0 0 -8.27981e-07 -2.21593e-06 -3.38831e-06 -1.07656e-06 -3.3373e-08 1.4501e-07 0.000111007 -1.98629e-05 -0.000147668 0.004 390.086 5.75012 
88 1 1 -0.00730761 -0.0383837 0.00392726 0 0 0 -6.87396e-07 -1.73103e-06 -2.38357e-06 -1.0892e-06 -1.29156e-07 4.44348e-07 0.00016686 -0.00022761 0.000218027 0.004 443.188 5.02054 
776 1 1 0.00520386 -0.0354368 0.00395022 0 0 0 -4.94843e-07 -2.57269e-06 -2.36011e-06 -1.70209e-06 -4.01582e-07 1.17625e-06 0.000449692 -0.000166814 0.000124027 0.004 613.483 -2.37546 
410 1 1 0.0130236 -0.0368131 0.00392571 0 0 0 -9.93576e-08 -1.40862e-06 -1.63664e-06 -1.82523e-06 -1.76631e-07 1.30931e-06 9.77594e-05 -9.47144e-05 9.50969e-05 0.004 682.826 -5.45921 
282 1 1 0.025876 -0.0381319 0.00388526 0 0 0 8.67211e-08 -6.58564e-07 -6.65971e-07 -1.1907e-06 -6.6462e-07 7.94556e-07 2.24251e-05 -3.68695e-05 -8.96354e-06 0.004 757.955 -5.40391 
682 1 1 -0.0302016 -0.0348779 0.00393465 0 0 0 -3.80822e-07 -4.87665e-07 -1.06145e-06 -4.58571e-07 1.95229e-07 -3.35128e-07 -0.000110366 2.60704e-05 4.36132e-05 0.004 322.096 3.57192 
251 1 1 -0.0224189 -0.0338476 0.00392332 0 0 0 -8.07103e-07 -1.39157e-06 -2.6816e-06 -9.74186e-07 8.85549e-09 -5.80026e-07 0.00011772 0.000208466 -0.000153596 0.004 349.129 5.2598 
770 1 1 -0.00204752 -0.0321408 0.00393964 0 0 0 -6.68505e-07 -2.60363e-06 -2.08518e-06 -1.91332e-06 -3.33285e-07 8.88368e-07 0.000408567 -3.15809e-05 -0.000202928 0.004 540.484 0.810204 
883 1 1 0.018166 -0.0307536 0.00390021 0 0 0 -6.53047e-08 -1.82309e-06 -1.91317e-06 -2.50702e-06 -1.03436e-06 2.39747e-06 0.000305777 0.000171549 -8.2527e-05 0.004 726.09 -5.60533 
838 1 1 0.0320336 -0.033109 0.00396071 0 0 0 7.7594e-08 -4.88212e-07 -6.89539e-07 -1.50619e-06 -4.78713e-07 1.97688e-06 -5.65393e-05 -3.09942e-05 6.08791e-05 0.004 778.492 -3.88214 
617 1 1 -0.0372521 -0.0271215 0.00391646 0 0 0 -2.37436e-07 -7.07222e-07 -1.0133e-06 -5.09246e-07 5.5041e-08 -6.35026e-07 0.000119348 5.97462e-05 -2.61374e-05 0.004 307.123 1.79819 
824 1 1 -0.0292998 -0.0270298 0.00392984 0 0 0 -2.62107e-07 -6.91567e-07 -2.16544e-06 -9.71048e-07 5.5566e-07 -9.313e-07 -1.95629e-05 0.000138517 -5.3112e-05 0.004 315.272 2.88896 
571 1 1 -0.0202615 -0.0262215 0.00393285 0 0 0 -8.48137e-07 -1.83518e-06 -3.27837e-06 -1.57814e-06 3.416e-07 -5.2972e-07 7.37748e-05 -4.74973e-05 -0.000175413 0.004 345.951 5.21045 
861 1 1 -0.00959293 -0.0297305 0.00389698 0 0 0 -1.13656e-06 -2.46352e-06 -3.60712e-06 -1.90357e-06 9.76031e-08 6.52141e-07 0.000147744 -0.000284943 0.000235285 0.004 437.58 4.84635 
434 1 1 0.0103455 -0.0293807 0.00393741 0 0 0 -7.78117e-07 -2.18349e-06 -2.06824e-06 -2.69394e-06 -4.32428e-07 1.26493e-06 0.000111542 -0.000242494 0.000186925 0.004 668.341 -4.49663 
103 1 1 0.0311547 -0.0252347 0.00394361 0 0 0 -5.28376e-07 -6.68382e-07 -9.44347e-07 -2.4058e-06 -5.3286e-07 2.82445e-06 9.67521e-05 -0.000167728 0.000100094 0.004 782.269 -3.23312 
769 1 1 -0.041344 -0.0202818 0.0039823 0 0 0 -7.33553e-09 -4.27984e-07 -4.74999e-07 -4.24859e-07 1.37947e-07 -4.68115e-07 -4.29493e-05 0.000107375 -7.24994e-05 0.004 303.582 1.09973 
94 1 1 -0.0333714 -0.0202163 0.0039437 0 0 0 -2.74907e-07 -8.36442e-07 -1.87148e-06 -1.00177e-06 4.77485e-07 -1.18979e-06 -3.54644e-05 0.000202084 1.61237e-05 0.004 309.343 2.02892 
40 1 1 -0.025401 -0.0201464 0.00391762 0 0 0 -4.42934e-07 -9.35517e-07 -2.86591e-06 -1.45419e-06 8.89228e-07 -1.17707e-06 8.95031e-05 0.000119581 6.04353e-05 0.004 323.661 3.55786 
19 1 1 -0.0086507 -0.0218804 0.00393966 0 0 0 -2.08388e-06 -2.15175e-06 -2.82431e-06 -2.756e-06 3.44554e-07 4.11759e-07 0.000287255 -0.00032221 1.45538e-05 0.004 439.699 4.99635 
442 1 1 -0.000436946 -0.02185 0.00393582 0 0 0 -2.09405e-06 -2.46407e-06 -2.88678e-06 -3.00723e-06 -3.01017e-07 1.35114e-06 0.00037501 -0.000409281 2.01223e-05 0.004 550.255 0.828748 
259 1 1 0.00753193 -0.0220001 0.0039251 0 0 0 -2.01167e-06 -2.71908e-06 -1.7161e-06 -3.12561e-06 -5.84299e-07 1.21764e-06 0.000516277 -0.000420596 6.37956e-05 0.004 649.136 -3.68299 
512 1 1 0.0153883 -0.0232356 0.00397834 0 0 0 -1.02105e-06 -2.20579e-06 -1.60518e-06 -2.83363e-06 -1.60733e-06 1.12178e-06 0.000205937 0.000214156 -4.03179e-05 0.004 718.068 -5.02589 
470 1 1 0.0232616 -0.0243589 0.00390813 0 0 0 -6.28311e-07 -1.65828e-06 -1.78066e-06 -3.02595e-06 -1.65648e-06 3.01505e-06 0.000322096 -0.000150418 0.000168848 0.004 760.647 -4.72844 
451 1 1 0.0390293 -0.0244875 0.00392048 0 0 0 -2.79484e-07 -1.6609e-07 -1.82346e-07 -1.49674e-06 -3.54523e-07 7.28716e-07 6.86825e-05 -7.21829e-05 0.000104679 0.004 792.063 -1.91714 
531 1 1 -0.0164595 -0.0192004 0.00396126 0 0 0 -5.17838e-07 -1.82377e-06 -1.80452e-06 -1.91398e-06 5.20638e-07 -3.98641e-07 0.000364053 -5.83812e-05 0.000144144 0.004 354.69 5.7259 
229 1 1 0.0202059 -0.0169136 0.00386873 0 0 0 -1.98432e-06 -1.94784e-06 -1.8761e-06 -3.84645e-06 -1.44655e-06 2.78088e-06 0.000298659 -0.000356173 0.000217349 0.004 748.983 -4.83453 
734 1 1 0.0280521 -0.017942 0.00394395 0 0 0 -1.55458e-06 -1.1752e-06 -2.44822e-07 -3.19634e-06 -1.29741e-06 2.62355e-06 0.000313751 -0.000324 8.74636e-05 0.004 780.019 -3.14706 
635 1 1 0.0425981 -0.0174495 0.00392191 0 0 0 8.20267e-08 -4.33497e-08 -1.71803e-07 -9.89279e-07 -2.83931e-07 6.50662e-07 -3.30631e-05 5.85859e-05 -0.000101334 0.004 797.394 -0.825571 
87 1 1 -0.0448224 -0.0104639 0.00391421 0 0 0 -6.50031e-07 -1.28045e-07 -6.48463e-07 -7.99042e-07 3.50975e-07 -6.81239e-07 6.82676e-05 -8.23632e-05 -9.82364e-05 0.004 301.289 0.47562 
406 1 1 -0.0373951 -0.013391 0.00396017 0 0 0 -4.44973e-07 -7.39307e-07 -1.35677e-06 -1.26036e-06 5.20225e-07 -8.57724e-07 3.17537e-05 6.64904e-05 7.33861e-05 0.004 303.577 1.03928 
224 1 1 -0.023058 -0.0126019 0.00387962 0 0 0 -1.96428e-06 -6.99094e-07 -2.51767e-06 -2.41773e-06 1.87707e-06 -7.92446e-07 8.40038e-05 -0.000292064 0.000164294 0.004 335.843 4.07115 
751 1 1 -0.0102996 -0.0141546 0.00396944 0 0 0 -2.04499e-06 -1.57705e-06 -1.82822e-06 -2.89464e-06 9.86155e-07 6.46417e-07 5.82799e-05 -2.31556e-05 9.05857e-05 0.004 414.954 5.06862 
622 1 1 -0.00273386 -0.011741 0.00388522 0 0 0 -2.74999e-06 -1.72205e-06 -2.33975e-06 -3.47768e-06 8.88294e-07 1.55005e-06 0.000403624 -0.000266015 -5.10389e-05 0.004 501.121 1.98264 
128 1 1 0.0095107 -0.010685 0.00388456 0 0 0 -2.72011e-06 -1.93898e-06 -2.6841e-06 -4.09785e-06 3.39443e-07 2.31243e-06 0.000356632 -0.000319815 0.000156117 0.004 678.423 -4.72992 
68 1 1 0.0262808 -0.010211 0.00395437 0 0 0 -2.53509e-06 -1.05136e-06 -5.91623e-07 -3.54381e-06 -1.14568e-06 2.94854e-06 8.20608e-05 -0.00046929 0.000104109 0.004 782.734 -2.98368 
791 1 1 0.0340945 -0.0118532 0.00392799 0 0 0 -1.74617e-06 -1.08846e-06 -5.67135e-07 -3.83429e-06 -1.92591e-06 1.88558e-06 0.000321489 -0.000262816 8.76376e-05 0.004 794.393 -1.44145 
354 1 1 -0.0380748 -0.00550397 0.00392043 0 0 0 -1.40442e-06 -4.89452e-07 -1.30174e-06 -1.22196e-06 1.04234e-06 -1.09171e-06 2.92669e-05 -0.00029335 8.9355e-05 0.004 303.279 0.927733 
725 1 1 -0.03049 -0.00800532 0.00392521 0 0 0 -1.18267e-06 -5.26378e-07 -1.29825e-06 -1.97221e-06 1.13178e-06 -9.20231e-07 0.000205551 -0.000184415 9.03851e-05 0.004 308.556 1.85404 
353 1 1 -0.0161288 -0.00879811 0.00391143 0 0 0 -2.29238e-06 -1.05913e-06 -1.59742e-06 -2.2692e-06 1.84044e-06 2.95515e-08 9.13826e-05 -0.000181721 -0.000107832 0.004 373.108 4.98802 
391 1 1 -0.00857659 -0.00639749 0.00391357 0 0 0 -3.11854e-06 -1.18785e-06 -1.52715e-06 -2.74715e-06 1.53512e-06 8.05517e-07 -3.03652e-05 -0.000460332 0.000219097 0.004 437.367 4.40794 
683 1 1 0.0173534 -0.00945629 0.00390984 0 0 0 -2.81697e-06 -1.41177e-06 -1.24959e-06 -3.78671e-06 -8.4844e-07 2.90725e-06 0.000262318 -0.000357496 -7.01002e-05 0.004 740.028 -5.09633 
690 1 1 0.0385537 -0.00520141 0.00390021 0 0 0 -1.35381e-06 -1.24404e-06 -4.91893e-08 -1.98253e-06 -2.46396e-06 1.64317e-06 0.000284447 -0.000259725 5.61637e-05 0.004 797.447 -0.756636 
10 1 1 0.0449635 -0.00990888 0.00397399 0 0 0 -1.77216e-07 -1.99182e-07 -1.32907e-07 -4.93251e-07 -4.46397e-07 3.43909e-07 2.32757e-05 -3.2915e-05 0.000142462 0.004 798.812 -0.443103 
402 1 1 -0.0460169 -0.00264172 0.00392183 0 0 0 -7.88845e-07 -3.91898e-08 -7.49798e-07 -6.2105e-07 6.39027e-07 -9.6709e-07 -3.93956e-05 -1.90115e-05 4.89638e-05 0.004 301.55 0.515781 
761 1 1 -0.0294744 -0.000168347 0.00392564 0 0 0 -2.16824e-06 -3.25123e-07 -9.18095e-07 -1.64615e-06 1.76621e-06 -1.02983e-06 6.88262e-05 -0.000280374 1.4031e-05 0.004 315.17 2.58633 
293 1 1 -0.0229324 -0.00466874 0.0039595 0 0 0 -2.54849e-06 -6.33808e-07 -1.13892e-06 -1.75339e-06 2.05794e-06 -7.69562e-07 0.000201514 -0.000302005 0.00010599 0.004 333.966 4.15027 
384 1 1 -0.0147668 -0.00087701 0.0039815 0 0 0 0.000333904 -0.000724945 -1.20436e-09 -5.86098e-14 1.27866e-13 2.20477e-08 0.181657 0.0836696 0.226562 0.004 301.492 0 
378 1 1 0.00130612 -0.00490407 0.00392905 0 0 0 -3.01471e-06 -1.54596e-06 -1.33847e-06 -3.59249e-06 8.04666e-07 1.37658e-06 0.000383855 -0.000107609 -0.000100797 0.004 558.205 -0.651528 
390 1 1 0.0103707 -0.00276531 0.00396885 0 0 0 -3.34381e-06 -1.25786e-06 -7.64154e-07 -3.29176e-06 5.43194e-07 1.91382e-06 0.000312064 -0.000186411 -0.000174867 0.004 699.895 -5.99933 
411 1 1 0.0223603 -0.00329286 0.00397623 0 0 0 -2.98289e-06 -9.91189e-07 -5.44654e-07 -3.49618e-06 -7.20446e-07 2.9699e-06 4.53209e-06 -0.000372004 0.000124407 0.004 771.906 -4.07365 
342 1 1 0.0307348 -0.00361665 0.00397528 0 0 0 -1.61408e-06 -7.66215e-07 -2.29384e-07 -1.65236e-06 -1.51205e-06 1.26607e-06 1.04921e-05 -0.00014429 -0.000212598 0.004 794.093 -1.47673 
262 1 1 0.0460221 -0.00206505 0.00395832 0 0 0 -5.52183e-07 -1.00327e-07 6.15715e-08 -7.88842e-07 -5.75652e-07 2.72642e-07 5.29258e-05 -6.49342e-05 4.2888e-05 0.004 798.883 -0.420556 
261 1 1 -0.0398214 0.002246 0.00393477 0 0 0 -1.41415e-06 -1.98584e-07 -7.86329e-07 -1.14412e-06 1.18665e-06 -1.35391e-06 8.26804e-05 -0.000136608 -4.61457e-05 0.004 303.797 0.967611 
666 1 1 -0.00454674 0.000451414 0.00395603 0 0 0 -4.58772e-06 -1.01698e-06 -3.25572e-07 -2.40933e-06 1.64618e-06 1.1574e-06 0.000177998 -0.000707012 0.000282612 0.004 485.336 2.98736 
815 1 1 0.00434371 0.00243559 0.0039271 0 0 0 -4.97662e-06 -1.15416e-06 -9.50088e-08 -3.29129e-06 1.95486e-06 1.9633e-06 0.000177377 -0.000797453 0.000474875 0.004 618.711 -3.32144 
306 1 1 0.0163701 0.00247666 0.00395808 0 0 0 -4.06866e-06 -1.04237e-06 -4.17424e-07 -3.52407e-06 8.15882e-07 2.18838e-06 -1.86501e-05 -0.00071427 0.000181693 0.004 749.637 -5.66962 
178 1 1 0.0241042 0.00444176 0.00386112 0 0 0 -2.8598e-06 -7.12987e-07 3.80049e-07 -2.59564e-06 -7.1626e-07 2.84876e-06 0.00014434 -0.000386711 -0.000162344 0.004 773.913 -3.8647 
862 1 1 0.0320657 0.00423368 0.00393095 0 0 0 -1.85753e-06 -3.19412e-07 8.18998e-07 -2.01796e-06 -1.35044e-06 2.67309e-06 0.000132639 -0.000162455 0.000235454 0.004 791.039 -1.92564 
661 1 1 0.0398756 0.0029147 0.00394679 0 0 0 -9.65633e-07 7.9735e-09 3.54905e-07 -1.49581e-06 -7.95463e-07 8.90309e-07 4.93256e-05 -8.40781e-06 -1.47152e-05 0.004 797.178 -0.823052 
677 1 1 -0.0453782 0.00788539 0.00393642 0 0 0 -5.34801e-07 -2.56532e-08 -2.0678e-07 -5.55941e-07 6.87845e-07 -7.00605e-07 5.06253e-05 -3.23026e-05 -4.41656e-05 0.004 301.561 0.530323 
12 1 1 -0.0333161 0.00671959 0.00393697 0 0 0 -1.82948e-06 -1.57998e-07 -3.54176e-07 -1.3582e-06 1.54161e-06 -1.36253e-06 7.07952e-05 -3.8682e-05 -1.2474e-05 0.004 310.323 1.96862 
420 1 1 -0.0253999 0.00664837 0.00392687 0 0 0 -3.06531e-06 -1.26492e-07 3.03606e-08 -1.57537e-06 2.09393e-06 -9.78641e-07 2.13484e-05 -0.000385421 -1.23971e-05 0.004 327.421 3.55056 
654 1 1 -0.0175134 0.00720945 0.00387212 0 0 0 -4.25152e-06 -4.00362e-07 9.36374e-07 -1.74557e-06 2.62863e-06 1.09027e-07 0.00011944 -0.000520874 -6.86274e-05 0.004 362.262 5.03731 
145 1 1 -0.00454405 0.00836536 0.0038631 0 0 0 -5.58661e-06 -8.82886e-07 9.92459e-07 -2.30633e-06 2.39423e-06 1.67245e-06 0.000122504 -0.000993983 -0.000284781 0.004 482.777 3.33866 
624 1 1 0.0451449 0.00890654 0.00390656 0 0 0 -1.20118e-06 -3.08547e-08 5.2255e-07 -1.63756e-06 -9.15609e-07 1.06881e-06 1.60743e-07 -0.000257127 2.50068e-05 0.004 798.408 -0.551634 
613 1 1 -0.0372991 0.0135339 0.00384345 0 0 0 -1.24427e-06 -2.63359e-08 1.36951e-07 -1.07503e-06 1.19128e-06 -1.19477e-06 4.94787e-05 -0.000218913 -3.34496e-05 0.004 305.04 1.25702 
265 1 1 -0.0293062 0.0135429 0.00396372 0 0 0 -2.07433e-06 -1.71772e-07 1.55288e-07 -1.29439e-06 1.40523e-06 -9.74932e-07 0.000149329 -5.68213e-05 2.7076e-05 0.004 316.07 2.8218 
273 1 1 -0.0213694 0.0141274 0.0039294 0 0 0 -3.21561e-06 -7.02369e-09 8.14862e-07 -1.45996e-06 1.94708e-06 -9.84968e-07 -0.000128937 -0.000414601 -0.000180013 0.004 335.201 4.37374 
492 1 1 -0.01145 0.0123712 0.00398079 0 0 0 -4.81859e-06 2.32578e-07 8.16925e-07 -1.86629e-06 2.28478e-06 2.30573e-07 -9.84836e-05 -0.000338089 0.000167663 0.004 407.064 6.53892 
234 1 1 0.00585287 0.010393 0.00392889 0 0 0 -5.60331e-06 -8.36374e-07 1.54524e-06 -2.59161e-06 2.13598e-06 2.31241e-06 0.00017128 -0.000716946 -0.000628742 0.004 609.02 -2.17618 
160 1 1 0.0142843 0.0106356 0.00390956 0 0 0 -4.89615e-06 -1.05609e-06 1.30707e-06 -2.34526e-06 5.09364e-07 2.52892e-06 0.000275377 -0.00069239 -0.000239868 0.004 712.621 -5.01197 
484 1 1 0.0220893 0.0120738 0.00390118 0 0 0 -3.41361e-06 -5.05612e-07 1.62467e-06 -1.17097e-06 -5.358e-07 2.28596e-06 0.000116001 -0.000350741 0.000195597 0.004 761.722 -4.24831 
743 1 1 0.0300184 0.0126216 0.00398126 0 0 0 -2.25596e-06 -1.0268e-06 8.61475e-07 -9.30475e-08 8.351e-07 5.56753e-07 9.67378e-05 7.19702e-05 -0.000301777 0.004 783.049 -2.83972 
514 1 1 0.0379537 0.0130186 0.00386904 0 0 0 -1.6978e-06 -2.59039e-07 1.02251e-06 -1.35505e-06 -3.56196e-07 1.24079e-06 0.000178491 -0.000282056 0.000550838 0.004 794.122 -1.3986 
530 1 1 -0.0159002 0.0198648 0.00392796 0 0 0 -3.84712e-06 1.5058e-07 2.1883e-06 -1.26981e-06 1.46622e-06 1.06463e-07 -0.000143863 -0.000955759 8.4563e-05 0.004 360.478 5.42223 
227 1 1 -0.00736502 0.0192084 0.00396595 0 0 0 -4.53223e-06 5.55618e-08 2.19831e-06 -1.41919e-06 2.11617e-06 8.35197e-07 -5.54908e-05 -0.000550487 -0.000446285 0.004 450.837 5.50292 
392 1 1 -0.000498614 0.0151513 0.00394445 0 0 0 -5.06952e-06 -5.06815e-07 2.22514e-06 -1.97618e-06 2.21825e-06 1.04717e-06 -2.72063e-05 -0.000195469 0.000330995 0.004 528.463 1.79615 
493 1 1 0.00985841 0.0172531 0.00394646 0 0 0 -4.39349e-06 -1.19692e-06 2.34427e-06 -1.42043e-06 1.12307e-06 1.50981e-06 0.000200467 -0.000213114 0.00040808 0.004 659.129 -3.71037 
34 1 1 0.0176357 0.0187852 0.00394098 0 0 0 -3.88508e-06 -2.75394e-07 2.69513e-06 -1.01336e-06 -1.14898e-06 1.58339e-06 0.000228389 -0.000439945 3.28123e-05 0.004 724.393 -4.73384 
206 1 1 0.0255397 0.0192353 0.00396992 0 0 0 -2.60723e-06 -5.29263e-07 1.96192e-06 -1.06418e-06 -8.56832e-07 6.56199e-07 0.000189543 0.000366514 -3.73545e-05 0.004 767.512 -3.80028 
104 1 1 0.0334175 0.0199346 0.00389649 0 0 0 -2.46121e-06 -2.9074e-07 1.32767e-06 -1.68096e-06 -6.08141e-07 1.097e-06 0.000146312 -0.000444945 0.000235287 0.004 786.54 -2.42447 
809 1 1 -0.0412058 0.0204949 0.00395498 0 0 0 -4.59604e-07 -9.17289e-08 9.25685e-08 -4.11776e-07 5.54654e-07 -5.49288e-07 1.18119e-05 -5.98622e-05 -5.47247e-05 0.004 302.53 0.836129 
773 1 1 -0.0331523 0.0204531 0.00393523 0 0 0 -1.36396e-06 -4.13386e-07 9.42148e-07 -1.01676e-06 1.23211e-06 -8.38245e-07 3.52716e-05 -0.000200509 -0.000109837 0.004 309.875 2.19126 
792 1 1 0.00347678 0.0219735 0.00392105 0 0 0 -4.12372e-06 -1.29488e-06 2.07302e-06 -9.22749e-07 1.55826e-06 8.57618e-07 7.44578e-05 -0.000491725 -0.00055757 0.004 588.457 -1.12181 
718 1 1 0.0413199 0.0203659 0.00392988 0 0 0 -1.36828e-06 2.56032e-07 1.05705e-06 -9.19993e-07 -4.24138e-07 9.12551e-07 -6.6687e-05 -7.06204e-06 -0.000158034 0.004 794.388 -1.42264 
101 1 1 -0.0371146 0.0272995 0.00390402 0 0 0 -1.43616e-07 -3.62814e-07 5.4469e-07 -4.8178e-07 8.01758e-07 -6.13898e-07 7.42083e-05 -5.63812e-05 -0.000106336 0.004 306.338 1.65711 
246 1 1 -0.0290567 0.0272807 0.00398271 0 0 0 -2.24028e-06 -2.77532e-07 7.41582e-07 -2.32755e-07 8.62988e-07 -3.45901e-07 -0.000110525 -0.000354749 0.000262715 0.004 312.424 2.56789 
331 1 1 -0.0212281 0.0257798 0.00390019 0 0 0 -2.61544e-06 -4.06028e-08 1.74499e-06 -7.46961e-07 1.39222e-06 -4.96368e-07 0.000177418 -3.30229e-05 -0.000131171 0.004 336.442 4.28768 
846 1 1 -0.0134708 0.0274168 0.0039748 0 0 0 -3.39827e-06 -2.28298e-07 1.68856e-06 -1.49913e-07 7.19495e-07 3.12618e-07 -0.000302202 -0.000365442 -6.88805e-05 0.004 383.457 5.15043 
348 1 1 -0.00329916 0.0260611 0.00393374 0 0 0 -3.08457e-06 -6.22012e-07 2.67541e-06 1.61767e-07 1.22719e-06 7.58278e-07 1.43003e-05 8.66297e-05 9.1698e-05 0.004 507.428 2.53644 
786 1 1 0.00840354 0.0281551 0.00389684 0 0 0 -2.61575e-06 -1.42294e-06 3.26625e-06 6.0814e-07 4.38398e-07 3.98025e-07 0.000321077 -0.000457637 0.000286258 0.004 642.687 -3.55774 
316 1 1 0.0162833 0.0272928 0.00390629 0 0 0 -1.02933e-06 -4.85022e-07 2.7531e-06 3.93984e-07 -1.69899e-06 5.78278e-08 -1.71368e-05 1.1632e-05 -0.000284201 0.004 720.931 -5.25176 
495 1 1 0.0288861 0.0264618 0.00396715 0 0 0 -1.20471e-06 -2.53084e-07 2.0002e-06 -1.05951e-06 -1.06098e-06 4.678e-07 0.000381314 -4.96916e-05 -0.000505397 0.004 779.73 -3.29921 
863 1 1 0.0367263 0.0277633 0.00392936 0 0 0 -1.14167e-06 -4.79937e-07 9.65076e-07 -4.64363e-08 -1.29972e-06 4.13818e-07 -3.47177e-05 -0.000134746 0.000124428 0.004 791.875 -1.97774 
511 1 1 -0.00761835 0.0327132 0.00388553 0 0 0 -2.24065e-06 -9.32136e-07 2.03399e-06 7.10461e-07 4.77152e-07 3.93689e-07 5.15254e-05 -0.000469696 -0.000206958 0.004 467.859 3.74262 
722 1 1 0.00164033 0.0322874 0.00396635 0 0 0 -2.58056e-06 -1.5734e-06 2.42561e-06 1.07082e-06 1.56656e-06 -8.7065e-08 0.00038612 -0.000438144 -0.000302988 0.004 569.293 -0.718746 
2 1 1 0.0229311 0.031696 0.00396243 0 0 0 2.24981e-06 2.43356e-06 2.52201e-06 -2.65861e-06 -1.85169e-06 6.28741e-07 -0.000540755 -2.13387e-05 0.000200482 0.004 757.776 -5.397 
254 1 1 0.0304218 0.0345041 0.00398149 0 0 0 0.000479892 -0.000707761 2.28394e-06 1.04194e-05 7.26485e-06 1.77032e-05 0.178039 0.120759 -0.0211783 0.004 798.568 -0.486556 
257 1 1 -0.0296322 0.0352231 0.00395613 0 0 0 -1.31994e-06 -8.11723e-07 1.16861e-06 -1.63387e-07 7.3328e-07 -4.27256e-07 0.000218822 -0.00041722 -0.0004769 0.004 312.806 2.84808 
582 1 1 -0.0157655 0.0356205 0.00393205 0 0 0 -2.50201e-06 -2.26304e-06 2.6975e-06 -4.35621e-07 8.49873e-07 -1.57793e-07 0.0003449 -0.00064061 -0.000418632 0.004 345.911 5.62571 
255 1 1 -0.00267125 0.038932 0.00391148 0 0 0 -1.64629e-06 -1.18199e-06 3.12498e-06 5.60766e-08 6.30768e-07 -1.99209e-07 0.000233104 -0.000283187 8.36984e-06 0.004 512.627 1.83257 
887 1 1 0.00812084 0.0373183 0.00392889 0 0 0 -1.60588e-06 -2.20594e-06 2.78882e-06 6.3606e-07 3.37449e-07 4.80749e-07 0.000213341 -0.000182802 0.000174939 0.004 672.543 -6.03211 
719 1 1 0.0157853 0.0351951 0.00398363 0 0 0 3.0568e-07 -2.27311e-07 1.42645e-06 -9.71093e-07 -1.3564e-06 4.80305e-07 -0.000194271 0.000253293 0.000220638 0.004 727.612 -6.26578 
21 1 1 0.0234243 0.0396338 0.00391497 0 0 0 6.88576e-08 3.71841e-07 3.77944e-07 -1.34633e-06 -6.53709e-07 7.63833e-07 2.94605e-07 -4.398e-05 5.37342e-05 0.004 760.762 -5.16145 
325 1 1 -0.0222388 0.0402984 0.00393951 0 0 0 -9.62373e-07 -7.86749e-07 1.06332e-06 -1.70996e-07 5.36995e-07 -2.17932e-07 0.000117265 -0.00020153 -0.000359632 0.004 335.086 5.19189 
595 1 1 -0.014931 0.0435393 0.00398254 0 0 0 -5.6139e-07 -6.80084e-07 1.49683e-06 -9.39308e-08 3.08754e-07 -3.27824e-07 -0.00031948 -0.000124071 -1.36198e-05 0.004 370.668 5.67278 
568 1 1 0.0162912 0.0430934 0.00392629 0 0 0 -4.97891e-07 -5.4686e-07 8.11519e-07 -1.30084e-07 3.19069e-08 4.40132e-07 0.000107497 7.67523e-05 0.000173596 0.004 723.08 -6.03623 
387 1 1 -0.00719691 0.045487 0.00389933 0 0 0 -6.50685e-07 -5.49019e-07 1.96377e-06 -1.76175e-07 2.2264e-07 -5.00768e-07 -0.000196021 -0.000110557 -6.73698e-05 0.004 470.566 3.65166 
852 1 1 0.000758888 0.0460615 0.00397617 0 0 0 -7.45543e-07 -3.61626e-07 1.57037e-06 -2.88053e-08 2.02191e-08 -9.75584e-08 -0.000381694 7.71127e-05 -0.000131888 0.004 557.024 -0.660047 
157 1 1 0.00865317 0.0452492 0.00389824 0 0 0 -1.15885e-06 -1.56467e-06 1.84833e-06 4.19e-07 4.63196e-08 2.75884e-07 8.4842e-05 -0.000119656 -0.000132487 0.004 657.65 -5.00207 
400 1 1 -0.024752 -0.0387964 0.00974418 0 0 0 -1.07572e-06 -1.23972e-06 -2.14351e-06 -1.26257e-06 9.61029e-08 -5.19781e-07 -9.6267e-05 -2.11354e-05 0.000319761 0.004 332.321 4.97103 
606 1 1 -0.000653918 -0.0387266 0.0081389 0 0 0 -9.44291e-07 -3.51398e-06 -3.98329e-06 -2.9999e-06 -1.87277e-07 1.72924e-06 0.000109426 0.000345303 -0.000320135 0.004 545.064 0.787017 
724 1 1 -0.0339143 -0.0311598 0.00984801 0 0 0 -8.51006e-07 -1.74677e-06 -2.05221e-06 -1.3092e-06 8.472e-08 -8.37721e-07 0.000143084 1.73256e-05 -0.000129126 0.004 311.337 2.42279 
183 1 1 0.0251947 -0.0311656 0.00751472 0 0 0 -3.64492e-07 -1.5125e-06 -2.31514e-06 -3.01523e-06 -2.38236e-06 3.82824e-06 -0.000148999 -0.000180761 0.000140372 0.004 764.053 -4.71969 
544 1 1 -0.0140217 -0.0253028 0.00874963 0 0 0 -2.0209e-06 -4.74875e-06 -6.1326e-06 -4.09676e-06 8.16808e-07 1.81728e-07 0.00021953 0.000164508 -1.63877e-05 0.004 388.297 5.38516 
29 1 1 -0.00450624 -0.0263794 0.00900725 0 0 0 -2.23673e-06 -5.04681e-06 -6.28682e-06 -4.97043e-06 1.80704e-07 2.62601e-06 0.000761369 0.000332662 -2.56039e-05 0.004 480.253 3.65507 
248 1 1 0.00349904 -0.0278426 0.00763305 0 0 0 -1.12016e-06 -3.76261e-06 -5.04609e-06 -4.07087e-06 -5.07135e-07 2.82382e-06 -0.000624223 -3.13036e-06 0.000201723 0.004 597.979 -2.13026 
79 1 1 0.035837 -0.0289489 0.00959645 0 0 0 -3.70777e-07 -4.79331e-07 -1.1759e-06 -1.94033e-06 3.32219e-07 3.08041e-06 -1.8388e-05 -0.000266295 0.000155263 0.004 787.196 -2.69791 
291 1 1 -0.00458867 -0.0173975 0.00909522 0 0 0 -4.01774e-06 -3.95912e-06 -5.17036e-06 -6.26002e-06 9.18426e-07 9.96695e-07 0.000106602 2.66565e-05 -5.03928e-05 0.004 496.746 2.16545 
891 1 1 0.00373492 -0.015528 0.00632505 0 0 0 -3.19894e-06 -3.05657e-06 -3.40884e-06 -4.53441e-06 1.23195e-07 3.08635e-06 -0.000301613 -5.16162e-06 1.58183e-05 0.004 595.808 -1.77685 
870 1 1 0.0138323 -0.0156364 0.00831012 0 0 0 -4.13856e-06 -4.33855e-06 -4.51425e-06 -7.92277e-06 -2.32466e-06 3.97046e-06 0.00044795 -0.00039013 -6.53497e-05 0.004 705.901 -5.47594 
777 1 1 0.034969 -0.018778 0.00770999 0 0 0 -9.38577e-07 -3.78735e-07 -7.15846e-07 -3.14765e-06 -1.75456e-06 1.7835e-06 -0.000512295 0.000404901 1.97703e-05 0.004 792.349 -1.78919 
837 1 1 -0.029449 -0.0146727 0.00803327 0 0 0 -1.64363e-06 -1.62943e-06 -3.72303e-06 -3.51002e-06 1.52301e-06 -2.36286e-06 0.000261203 -8.62765e-05 5.59168e-05 0.004 315.083 2.54079 
445 1 1 -0.0181358 -0.0138493 0.00995275 0 0 0 -4.33603e-06 -3.53836e-06 -5.62121e-06 -6.4128e-06 3.02222e-06 9.56654e-08 0.000653297 0.000184918 -0.000451596 0.004 358.92 4.92134 
783 1 1 0.00485905 -0.0086066 0.00993765 0 0 0 -6.29822e-06 -4.21767e-06 -4.37614e-06 -8.77092e-06 1.80975e-06 3.77708e-06 0.000333026 -0.000635741 0.000255691 0.004 613.447 -2.73492 
615 1 1 -0.0350999 -0.000758733 0.00955183 0 0 0 -3.20999e-06 -9.44627e-07 -1.82231e-06 -2.79057e-06 3.04052e-06 -2.26273e-06 0.00015441 -3.26635e-05 3.76158e-05 0.004 306.615 1.42459 
476 1 1 -0.0459521 0.00262138 0.00988979 0 0 0 -1.06769e-06 -3.72299e-07 -5.80812e-07 -7.96288e-07 1.10584e-06 -1.2881e-06 0.000146349 -8.97974e-06 -5.15854e-05 0.004 301.066 0.397855 
16 1 1 -0.0210455 0.00169435 0.00830927 0 0 0 -5.22355e-06 -1.51635e-06 -5.57874e-07 -3.45547e-06 3.96302e-06 -9.15649e-07 0.000412639 8.83223e-05 1.85104e-05 0.004 341.921 4.3962 
303 1 1 0.0459492 0.00350464 0.00962655 0 0 0 -1.51035e-06 -7.21011e-07 6.63925e-07 -2.01515e-06 -1.85066e-06 1.65457e-06 0.000139884 0.000162349 0.000189873 0.004 798.605 -0.496155 
523 1 1 -0.0389797 0.00803079 0.00932863 0 0 0 -2.43634e-06 -6.93479e-07 -4.44327e-07 -1.97981e-06 2.59212e-06 -2.50164e-06 0.000156954 -0.000148982 2.66198e-06 0.004 303.853 1.00477 
704 1 1 -0.0107979 0.00519219 0.00743859 0 0 0 -7.45406e-06 -1.07301e-06 8.61633e-07 -3.58402e-06 4.13209e-06 1.54463e-06 0.000215796 0.000270586 -4.70676e-05 0.004 414.107 4.97312 
454 1 1 0.00101185 0.0071593 0.00933953 0 0 0 -9.68722e-06 -3.24189e-06 2.0603e-06 -4.81569e-06 3.73479e-06 3.9991e-06 0.00051429 0.000177516 0.000483976 0.004 554.596 -0.00963594 
31 1 1 0.0102165 0.00547589 0.00832586 0 0 0 -9.45556e-06 -2.26129e-06 1.28556e-06 -6.0869e-06 2.19471e-06 5.67093e-06 0.000297533 -0.000162407 -1.66116e-05 0.004 668.235 -4.50726 
135 1 1 0.0188886 0.00749169 0.0096078 0 0 0 -7.5214e-06 -2.07209e-06 7.31689e-07 -6.54643e-06 6.21796e-07 4.01356e-06 0.000289534 -0.000179859 7.55893e-05 0.004 758.978 -5.07128 
712 1 1 0.0281139 0.00743268 0.00998851 0 0 0 -6.0191e-06 -1.89007e-06 1.59803e-06 -5.84734e-06 -3.13812e-06 5.33369e-06 0.00037649 -0.000455844 0.000364116 0.004 782.551 -3.07178 
210 1 1 0.0394934 0.00814608 0.00989878 0 0 0 -3.41964e-06 -5.352e-07 7.86281e-07 -4.0314e-06 -2.08053e-06 2.66666e-06 0.000116409 -0.000756914 -0.000112 0.004 796.708 -0.93932 
651 1 1 -0.0437987 0.0143398 0.00823567 0 0 0 -8.61735e-07 -1.83301e-07 5.39583e-08 -9.06844e-07 9.96237e-07 -1.18085e-06 5.71595e-05 -2.82219e-06 -2.03358e-05 0.004 302.231 0.717671 
621 1 1 0.0437182 0.0147846 0.00900764 0 0 0 -2.13273e-06 -2.80063e-08 1.318e-06 -2.03029e-06 -7.18227e-07 1.64855e-06 2.74895e-05 0.000194148 -5.5569e-05 0.004 796.168 -1.03775 
726 1 1 -0.0257657 0.0199972 0.00692825 0 0 0 -2.66847e-06 -4.62493e-07 1.52121e-06 -1.40304e-06 1.85068e-06 -9.8954e-07 0.00039107 0.000270861 0.000153817 0.004 321.521 3.45887 
230 1 1 -0.00847465 0.024595 0.00973775 0 0 0 -7.11831e-06 -2.96089e-06 5.03565e-06 -9.97143e-07 3.97363e-06 1.58538e-06 0.00120421 -0.000780717 -0.000254226 0.004 455.15 4.4794 
320 1 1 -0.00171264 0.020405 0.00979384 0 0 0 -8.62882e-06 -3.42864e-06 5.04877e-06 -1.88941e-06 3.50292e-06 1.8501e-06 0.000824668 -5.44976e-05 0.000229896 0.004 524.476 2.19271 
7 1 1 0.0129211 0.0224303 0.00918516 0 0 0 -6.57657e-06 -2.15307e-06 4.60747e-06 -2.39875e-07 9.57876e-07 1.9862e-06 0.000376844 -0.000371961 -0.000587992 0.004 695.484 -4.91487 
83 1 1 0.0214164 0.0239651 0.00888424 0 0 0 -4.53684e-06 -1.67128e-06 4.95256e-06 -7.37261e-07 -1.45884e-06 1.28747e-06 -3.77216e-05 -0.000974719 -0.000393383 0.004 759.091 -4.4882 
747 1 1 -0.0337321 0.0313835 0.00974073 0 0 0 -1.30599e-06 -1.1086e-06 2.28092e-06 -7.70612e-07 1.32524e-06 -1.29024e-06 -5.15521e-05 -0.00072667 -0.000248072 0.004 312.769 2.60729 
51 1 1 -0.0226192 0.0329654 0.00703451 0 0 0 -2.69393e-06 -1.27071e-06 2.63933e-06 -7.51722e-07 1.38551e-06 -6.29315e-07 -0.000273718 0.00040739 0.000146678 0.004 325.466 4.24808 
116 1 1 -0.00940735 0.0391203 0.00809817 0 0 0 -2.35231e-06 -2.25137e-06 3.72035e-06 -2.62702e-07 8.51193e-07 -7.05786e-07 0.000493604 -0.000126821 -0.000329605 0.004 456.321 4.46734 
205 1 1 -0.000560444 -0.0460776 0.0110171 0 0 0 -6.40073e-07 -2.17685e-06 -2.46354e-06 -1.69597e-06 1.61417e-07 1.46228e-06 -0.00042288 -0.000134696 0.000295201 0.004 542.795 2.0979 
836 1 1 0.00737987 -0.0454689 0.0106611 0 0 0 -3.45672e-07 -1.81334e-06 -2.14715e-06 -1.8049e-06 -1.59199e-07 1.33866e-06 -8.79657e-05 5.96522e-05 5.52988e-05 0.004 618.452 -3.33072 
486 1 1 -0.0156916 -0.0402432 0.0103352 0 0 0 -1.29553e-06 -2.29819e-06 -2.83845e-06 -2.16194e-06 -1.49572e-07 2.78541e-07 -0.000169793 0.000383626 -0.000617946 0.004 373.712 6.35004 
311 1 1 -0.00836809 -0.0439882 0.010679 0 0 0 3.02814e-07 -3.8664e-06 -3.19126e-06 -2.11476e-06 -7.38246e-08 6.76218e-07 0.000565699 -0.000115598 0.000234102 0.004 422.321 7.83625 
447 1 1 0.0180551 -0.0423881 0.0118323 0 0 0 -7.57457e-08 -1.48925e-06 -1.70575e-06 -2.2828e-06 3.14083e-07 2.23451e-06 -0.00014417 -0.000339611 0.000216117 0.004 708.845 -6.26728 
538 1 1 -0.0295743 -0.035351 0.0149849 0 0 0 -1.39015e-06 -2.40227e-06 -3.03454e-06 -2.1696e-06 1.7883e-07 -9.0969e-07 -0.00020468 0.000222163 -8.82376e-05 0.004 319.762 3.44094 
279 1 1 0.0111551 -0.0385417 0.0114152 0 0 0 -4.85252e-07 -3.47554e-06 -4.22869e-06 -4.65133e-06 -3.8639e-08 3.38378e-06 3.57851e-05 -0.000163657 9.08251e-05 0.004 662.209 -4.77754 
110 1 1 0.0250464 -0.0386627 0.0117241 0 0 0 -7.82734e-08 -1.12909e-06 -1.18838e-06 -1.85775e-06 2.18659e-07 1.67313e-06 -3.85731e-05 2.5333e-05 4.94754e-05 0.004 749.283 -5.66885 
188 1 1 -0.0179041 -0.0321007 0.0101564 0 0 0 -1.2404e-06 -5.12483e-06 -6.53957e-06 -3.35126e-06 3.30447e-07 -4.55509e-07 0.000367944 -6.09624e-05 0.000105083 0.004 365.308 5.4269 
810 1 1 -0.01026 -0.034451 0.0102036 0 0 0 -9.56283e-07 -5.14418e-06 -6.3571e-06 -3.87101e-06 3.48771e-07 1.71291e-06 0.000340868 0.000253559 -8.319e-05 0.004 422.945 5.24469 