ITEM: TIMESTEP
40000
ITEM: NUMBER OF ATOMS
891
ITEM: BOX BOUNDS mm mm mm
-0.05 0.05
-0.05 0.05
0 0.15
ITEM: ATOMS id type type x y z ix iy iz vx vy vz fx fy fz omegax omegay omegaz radius f_Temp[0] f_heatFlux[0] 
199 1 1 -0.00444377 -0.0458158 0.00397435 0 0 0 1.66925e-08 -1.07464e-07 -2.88455e-07 -4.72109e-08 1.05472e-08 2.01535e-08 -3.64065e-05 1.9137e-05 -1.71448e-05 0.004 500.284 1.98487 
873 1 1 -0.0201484 -0.0414789 0.0039016 0 0 0 -1.39634e-07 -7.47013e-08 -1.60775e-07 1.05419e-08 1.01309e-08 2.08187e-08 -2.42244e-05 -1.32788e-05 1.46833e-05 0.004 415.608 3.2835 
485 1 1 -0.0126796 -0.0442534 0.00397264 0 0 0 -1.35164e-08 -1.2232e-07 -2.32715e-07 -2.98823e-08 3.27492e-08 1.4793e-08 -1.09495e-05 5.0148e-05 -2.72496e-05 0.004 450.706 3.17795 
850 1 1 0.00335642 -0.0441759 0.00394115 0 0 0 -1.09405e-07 -3.04946e-07 -4.18516e-07 -2.53679e-08 -4.29688e-09 5.3646e-08 3.69354e-05 -4.23035e-05 2.65546e-05 0.004 553.823 0.173113 
186 1 1 0.0114401 -0.0445988 0.00392827 0 0 0 -7.49464e-09 -1.53019e-07 -2.70585e-07 -3.21692e-08 -2.8783e-09 -3.52027e-08 1.66038e-06 -3.87855e-05 6.63525e-06 0.004 632.405 -2.24303 
560 1 1 0.018969 -0.0420006 0.00394676 0 0 0 8.482e-08 -1.26705e-07 -2.17176e-07 -6.24029e-09 -7.93887e-09 -2.4076e-08 -8.9088e-06 5.47859e-06 4.15134e-06 0.004 665.025 -2.87313 
102 1 1 -0.0147501 -0.0357331 0.00386311 0 0 0 -1.46173e-07 -2.84016e-07 -4.14884e-07 3.75618e-08 7.18172e-09 1.91718e-08 1.42601e-05 6.554e-06 -3.99233e-05 0.004 437.959 2.72137 
88 1 1 -0.00730761 -0.0383837 0.00392727 0 0 0 -1.38904e-07 -2.44521e-07 -4.46618e-07 1.33689e-08 -1.73856e-08 1.84185e-08 3.06281e-05 -1.23198e-05 4.80236e-05 0.004 482.237 2.03994 
776 1 1 0.00520385 -0.0354368 0.00395024 0 0 0 5.92776e-09 -4.19468e-07 -5.56429e-07 2.1309e-08 2.37685e-08 -4.67948e-08 6.92974e-05 -2.76194e-05 2.39641e-05 0.004 593.992 -1.07611 
410 1 1 0.0130236 -0.0368131 0.00392572 0 0 0 9.58854e-08 -2.50601e-07 -5.00614e-07 1.78008e-08 1.21743e-08 -5.40783e-08 6.7782e-06 -4.50738e-06 5.10049e-06 0.004 640.296 -2.28071 
282 1 1 0.025876 -0.0381319 0.00388527 0 0 0 7.70386e-08 -1.41525e-07 -2.65188e-07 6.39632e-08 4.52066e-08 -7.36145e-08 -1.18835e-05 -8.02925e-07 -4.22403e-06 0.004 705.499 -3.32206 
682 1 1 -0.0302016 -0.0348779 0.00393465 0 0 0 -2.59354e-08 -3.88168e-08 -4.52604e-08 4.34251e-09 7.43959e-09 9.46204e-09 3.27674e-06 1.90414e-05 -2.56524e-07 0.004 364.022 3.1067 
251 1 1 -0.0224189 -0.0338476 0.00392332 0 0 0 -9.74881e-08 -1.37855e-07 -2.44702e-07 2.42183e-08 1.68811e-08 1.71148e-08 1.49632e-05 1.71189e-05 -1.91773e-05 0.004 398.819 3.13407 
770 1 1 -0.00204754 -0.0321408 0.00393965 0 0 0 8.29109e-09 -4.22815e-07 -5.22907e-07 3.93532e-08 -5.60147e-08 -5.40406e-08 4.78041e-05 3.56123e-05 -5.3099e-05 0.004 544.844 0.171858 
883 1 1 0.018166 -0.0307536 0.00390023 0 0 0 1.61675e-07 -3.11906e-07 -7.69227e-07 1.00047e-07 3.40352e-08 -2.32753e-07 3.12739e-05 7.40993e-05 -6.01982e-06 0.004 677.425 -2.86328 
838 1 1 0.0320336 -0.033109 0.00396073 0 0 0 1.78498e-07 -1.23316e-07 -4.25642e-07 1.09501e-07 3.24396e-08 -2.27047e-07 -5.72878e-05 -7.92018e-06 -1.69386e-05 0.004 732.787 -3.30417 
617 1 1 -0.0372521 -0.0271215 0.00391646 0 0 0 2.93272e-08 -1.37195e-08 4.28228e-08 5.02498e-09 1.20429e-08 1.5855e-08 -1.10598e-07 6.37603e-06 -4.88476e-06 0.004 336.75 2.69455 
824 1 1 -0.0292998 -0.0270298 0.00392984 0 0 0 1.06694e-08 -9.96176e-08 -2.48662e-08 1.24807e-08 1.21218e-09 2.23068e-08 1.30017e-05 5.99935e-06 -1.58038e-05 0.004 352.496 2.94077 
571 1 1 -0.0202615 -0.0262215 0.00393285 0 0 0 -2.1651e-08 -2.50873e-07 -2.68481e-07 5.6563e-08 -1.45646e-08 -1.95379e-09 2.60912e-05 1.73264e-05 -2.27273e-05 0.004 394.716 3.05135 
861 1 1 -0.00959294 -0.0297304 0.00389699 0 0 0 -8.54067e-08 -4.07725e-07 -5.80594e-07 7.21371e-08 -1.84003e-08 -1.29127e-08 2.64935e-05 -1.26651e-05 3.65852e-05 0.004 473.247 1.87177 
434 1 1 0.0103455 -0.0293807 0.00393743 0 0 0 1.13517e-07 -3.77784e-07 -6.06038e-07 7.11046e-08 3.13997e-08 -9.12261e-08 3.50628e-05 -1.36596e-05 1.13428e-05 0.004 632.568 -1.97286 
103 1 1 0.0311547 -0.0252347 0.00394363 0 0 0 2.2495e-07 -1.96008e-07 -6.30683e-07 1.64589e-07 3.58352e-08 -2.88164e-07 2.66571e-05 -3.67486e-05 3.3133e-05 0.004 741.993 -3.07172 
769 1 1 -0.041344 -0.0202818 0.0039823 0 0 0 3.94412e-08 -1.40326e-08 3.1206e-08 -1.54642e-09 2.86621e-09 2.90184e-09 4.52753e-06 -3.34031e-06 -6.72044e-06 0.004 326.666 2.38195 
94 1 1 -0.0333714 -0.0202163 0.0039437 0 0 0 8.38329e-08 -7.65143e-08 2.98177e-08 8.77987e-09 8.83795e-09 3.58773e-08 4.55793e-06 5.94015e-06 -1.06655e-05 0.004 339.558 2.63495 
40 1 1 -0.025401 -0.0201464 0.00391762 0 0 0 1.0367e-07 -1.9216e-07 -8.31471e-08 3.09071e-08 -1.2798e-08 1.3135e-08 5.8065e-06 2.5563e-05 -1.81054e-05 0.004 363.415 2.88037 
19 1 1 -0.00865072 -0.0218804 0.00393966 0 0 0 4.57161e-08 -4.25766e-07 -5.43826e-07 7.54618e-08 -3.24561e-08 -7.5397e-08 4.13779e-05 4.3506e-05 -6.24277e-05 0.004 474.791 1.77226 
442 1 1 -0.000436968 -0.02185 0.00393584 0 0 0 6.48694e-08 -4.65068e-07 -7.63719e-07 6.73289e-08 -3.98076e-08 -1.19027e-07 6.76094e-05 2.37332e-06 -3.33436e-05 0.004 552.287 -0.0216039 
259 1 1 0.00753191 -0.0220001 0.00392512 0 0 0 4.27506e-08 -4.78134e-07 -5.60577e-07 1.04956e-07 1.37423e-09 -1.52769e-07 2.88675e-05 -4.49508e-05 2.47837e-05 0.004 619.718 -1.62535 
512 1 1 0.0153883 -0.0232356 0.00397835 0 0 0 2.01823e-07 -2.52094e-07 -5.36615e-07 1.77867e-07 1.01335e-07 -1.60848e-07 2.56788e-05 7.42533e-05 9.7484e-06 0.004 674.185 -2.6201 
470 1 1 0.0232616 -0.0243589 0.00390816 0 0 0 2.71238e-07 -3.15554e-07 -9.00821e-07 1.90916e-07 5.06368e-08 -3.47921e-07 8.01515e-05 2.82468e-05 -1.38905e-05 0.004 713.215 -3.12114 
451 1 1 0.0390293 -0.0244875 0.00392048 0 0 0 1.69918e-07 3.44081e-09 -1.54026e-07 1.33103e-07 7.69896e-08 -8.06884e-08 -4.15926e-07 -8.16396e-06 8.10063e-06 0.004 761.714 -2.70079 
531 1 1 -0.0164596 -0.0192004 0.00396126 0 0 0 1.76671e-07 -3.01604e-07 -1.24034e-07 1.12976e-07 -6.48625e-08 -3.2981e-08 6.50549e-05 4.54466e-05 -3.57712e-05 0.004 406.018 3.03669 
229 1 1 0.0202059 -0.0169136 0.00386876 0 0 0 4.57187e-07 -3.21565e-07 -9.69647e-07 3.26761e-07 1.02659e-07 -4.28831e-07 1.43792e-05 4.84927e-05 -5.78979e-05 0.004 704.263 -2.82439 
734 1 1 0.0280521 -0.017942 0.00394397 0 0 0 1.98356e-07 -3.62035e-07 -6.29323e-07 2.69548e-07 1.46282e-07 -2.98411e-07 4.81067e-05 -6.54602e-05 -7.53162e-06 0.004 742.09 -2.89205 
635 1 1 0.0425981 -0.0174495 0.00392192 0 0 0 2.11296e-07 -6.79006e-09 -1.57323e-07 1.37285e-07 7.09999e-09 -1.35545e-07 -8.73373e-06 5.46095e-05 -1.9219e-05 0.004 778.491 -2.07219 
87 1 1 -0.0448224 -0.0104639 0.0039142 0 0 0 1.05531e-07 -3.66593e-08 8.82293e-08 5.93575e-09 -4.4041e-09 1.90126e-08 -6.0216e-06 1.35954e-05 1.6611e-05 0.004 315.288 1.72858 
406 1 1 -0.0373951 -0.013391 0.00396016 0 0 0 1.62929e-07 -7.29113e-08 4.50938e-08 -1.65783e-08 2.77556e-09 3.91517e-08 8.00723e-06 2.87264e-05 -2.13201e-05 0.004 324.647 2.17547 
224 1 1 -0.0230581 -0.0126019 0.00387961 0 0 0 2.58426e-07 -3.11802e-07 -2.0222e-07 -1.84607e-08 -5.02514e-08 -3.72423e-08 5.05125e-05 8.27743e-05 -1.92033e-05 0.004 376.097 2.69023 
751 1 1 -0.0102996 -0.0141545 0.00396945 0 0 0 3.42021e-07 -4.03303e-07 -4.56154e-07 5.46073e-08 -5.91572e-08 -1.29784e-07 1.71682e-06 6.67542e-05 -8.7684e-06 0.004 453.462 2.04883 
622 1 1 -0.00273388 -0.0117409 0.00388524 0 0 0 3.93447e-07 -4.88212e-07 -8.52317e-07 1.06154e-07 -1.95746e-08 -3.29993e-07 9.97747e-05 7.20253e-05 -1.97231e-05 0.004 515.689 0.739748 
128 1 1 0.00951066 -0.010685 0.00388459 0 0 0 5.94268e-07 -5.7859e-07 -1.05298e-06 3.3376e-07 -3.14265e-08 -4.41871e-07 0.000117908 6.24038e-05 5.04586e-05 0.004 642.244 -1.95046 
68 1 1 0.0262808 -0.010211 0.00395439 0 0 0 5.00689e-07 -2.73376e-07 -6.8761e-07 3.69112e-07 2.09245e-07 -3.90136e-07 2.83549e-05 3.63161e-05 -2.23737e-05 0.004 746.606 -2.75916 
791 1 1 0.0340945 -0.0118532 0.00392801 0 0 0 2.01973e-07 -2.39954e-07 -3.4845e-07 2.96544e-07 3.5304e-07 -2.04644e-07 -1.20496e-05 2.20678e-05 -0.000110057 0.004 769.036 -2.42061 
354 1 1 -0.0380748 -0.00550396 0.00392042 0 0 0 1.87368e-07 -1.07577e-07 9.23494e-08 -5.48115e-08 -7.10984e-10 4.34834e-08 1.45629e-05 2.82634e-05 4.20369e-06 0.004 321.97 1.95644 
725 1 1 -0.0304901 -0.00800531 0.0039252 0 0 0 2.63822e-07 -1.55854e-07 8.82471e-09 -5.1553e-08 1.07542e-08 2.68279e-08 -2.18654e-06 5.28667e-05 6.74186e-06 0.004 335.687 2.36126 
353 1 1 -0.0161288 -0.00879809 0.00391144 0 0 0 2.86576e-07 -3.78995e-07 -3.52543e-07 -3.83098e-08 -5.73423e-08 -1.32971e-07 4.48688e-05 1.03267e-05 1.12768e-05 0.004 414.778 2.42653 
391 1 1 -0.00857661 -0.00639748 0.00391358 0 0 0 4.67982e-07 -3.85391e-07 -5.84386e-07 -6.34087e-08 -2.03471e-08 -3.2895e-07 -9.1289e-06 7.30215e-05 -3.4457e-05 0.004 469.741 1.67727 
683 1 1 0.0173533 -0.00945629 0.00390987 0 0 0 5.73325e-07 -2.96346e-07 -8.56952e-07 3.47783e-07 1.37668e-07 -3.79486e-07 8.00002e-05 4.87259e-05 2.1667e-05 0.004 695.101 -2.70731 
690 1 1 0.0385537 -0.00520142 0.00390022 0 0 0 2.01173e-07 -5.58908e-08 -4.93302e-07 1.45338e-07 4.579e-07 -2.46342e-07 -1.6374e-05 1.408e-05 -9.87716e-06 0.004 780.554 -1.87104 
10 1 1 0.0449635 -0.00990888 0.00397399 0 0 0 1.29787e-07 -5.19684e-08 -1.88774e-07 2.03453e-09 3.81139e-08 5.44043e-09 1.48859e-05 -1.5017e-05 1.42243e-05 0.004 785.445 -1.67493 
402 1 1 -0.046017 -0.00264172 0.00392182 0 0 0 9.62211e-08 -6.87942e-08 1.12322e-07 -2.14104e-08 -4.83689e-09 3.06157e-08 1.66462e-05 4.99946e-07 -1.81917e-05 0.004 315.335 1.6639 
761 1 1 -0.0294744 -0.000168336 0.00392563 0 0 0 2.78274e-07 -2.21319e-07 -3.13697e-08 -1.20652e-07 -2.0615e-08 -4.70049e-08 2.76912e-05 4.87753e-05 -4.71169e-06 0.004 346.625 2.44706 
293 1 1 -0.0229324 -0.00466873 0.0039595 0 0 0 2.93096e-07 -3.066e-07 -1.74177e-07 -1.02219e-07 -6.9161e-08 -7.4767e-08 -2.76087e-06 4.26036e-05 -1.71398e-05 0.004 374.61 2.67397 
384 1 1 -0.0147031 -0.000924342 0.0039815 0 0 0 -8.51231e-05 -0.000536402 4.87744e-09 -5.46578e-14 -3.45845e-13 -2.01799e-08 0.134411 -0.0213301 0.145502 0.004 304.576 0 
378 1 1 0.00130609 -0.00490406 0.00392906 0 0 0 6.90605e-07 -3.79243e-07 -6.07044e-07 1.71623e-07 6.52247e-08 -2.56172e-07 8.2455e-05 0.000156485 -1.53661e-05 0.004 555.283 -0.124591 
390 1 1 0.0103707 -0.00276531 0.00396886 0 0 0 6.54753e-07 -5.02819e-07 -6.45821e-07 2.56226e-07 3.24281e-08 -3.14569e-07 4.25148e-05 8.02755e-05 -6.73282e-05 0.004 655.375 -2.31122 
411 1 1 0.0223603 -0.00329286 0.00397626 0 0 0 5.46846e-07 -2.34358e-07 -7.4661e-07 4.00498e-07 1.91166e-07 -3.84153e-07 -2.23438e-05 0.000104389 -6.21376e-06 0.004 728.978 -2.9152 
342 1 1 0.0307348 -0.00361665 0.00397529 0 0 0 3.19181e-07 -2.24904e-07 -4.20834e-07 1.25023e-07 3.53409e-07 -1.92203e-07 2.69903e-05 3.48723e-05 2.66211e-05 0.004 769.32 -2.31262 
262 1 1 0.0460221 -0.00206505 0.00395833 0 0 0 1.86662e-07 1.20278e-08 -1.78315e-07 4.00605e-08 9.59316e-08 6.25737e-09 -3.55129e-05 1.14062e-05 -3.88977e-05 0.004 785.956 -1.63534 
261 1 1 -0.0398214 0.00224601 0.00393476 0 0 0 1.78564e-07 -1.19273e-07 1.3669e-07 -5.42887e-08 7.84208e-09 4.79753e-08 6.63635e-06 1.78266e-05 -1.1254e-06 0.004 322.189 1.90286 
666 1 1 -0.00454676 0.000451426 0.00395604 0 0 0 5.74383e-07 -3.22727e-07 -6.35503e-07 -1.59799e-07 7.04088e-08 -3.71315e-07 -1.13796e-05 3.87484e-06 2.99415e-05 0.004 505.98 0.99444 
815 1 1 0.00434368 0.0024356 0.00392711 0 0 0 8.7237e-07 -4.29673e-07 -6.96453e-07 2.63196e-07 4.32681e-08 -3.79651e-07 -1.54142e-05 0.000165616 -5.48397e-06 0.004 597.036 -1.05744 
306 1 1 0.01637 0.00247667 0.0039581 0 0 0 6.85661e-07 -5.26384e-07 -6.63205e-07 2.40959e-07 5.96667e-08 -3.099e-07 0.000158023 0.000144162 0.000110516 0.004 699.598 -2.92577 
178 1 1 0.0241042 0.00444176 0.00386115 0 0 0 5.4269e-07 -2.16559e-07 -7.89316e-07 2.93381e-07 2.54501e-07 -4.01345e-07 7.23632e-05 8.46864e-05 -1.06584e-05 0.004 732.907 -2.8213 
862 1 1 0.0320656 0.00423367 0.00393097 0 0 0 4.22844e-07 -2.87278e-07 -6.38857e-07 2.00471e-07 3.05012e-07 -3.33829e-07 1.2727e-05 -1.05392e-06 1.82844e-06 0.004 763.309 -2.38372 
661 1 1 0.0398756 0.0029147 0.0039468 0 0 0 3.1167e-07 -1.91087e-09 -3.84838e-07 1.2526e-07 1.62841e-07 -9.57595e-08 -4.71032e-05 9.22755e-06 2.43551e-05 0.004 779.677 -1.89355 
677 1 1 -0.0453782 0.0078854 0.00393641 0 0 0 8.39396e-08 -7.71588e-08 8.97456e-08 -2.22886e-08 -3.94092e-09 3.11859e-08 5.61142e-06 -1.45606e-06 -2.54797e-06 0.004 315.805 1.70824 
12 1 1 -0.0333161 0.0067196 0.00393696 0 0 0 2.42324e-07 -1.80082e-07 1.10429e-07 -7.00587e-08 2.00993e-09 9.00765e-09 1.7105e-05 1.46879e-05 -6.02416e-06 0.004 337.353 2.29662 
420 1 1 -0.0254 0.00664838 0.00392687 0 0 0 3.71512e-07 -2.8851e-07 -5.21093e-08 -1.14574e-07 -7.46662e-08 -1.183e-07 4.77239e-05 6.05187e-05 -8.61836e-06 0.004 364.394 2.58077 
654 1 1 -0.0175134 0.00720947 0.00387212 0 0 0 4.9598e-07 -3.82283e-07 -4.262e-07 -1.24538e-07 -7.26505e-08 -2.55682e-07 7.41555e-05 9.47805e-05 -1.46996e-05 0.004 404.785 2.50888 
145 1 1 -0.00454407 0.00836537 0.00386311 0 0 0 7.00208e-07 -4.19968e-07 -7.22364e-07 1.36343e-08 -1.4003e-08 -4.55704e-07 7.56625e-05 0.000129689 -2.41913e-05 0.004 504.954 1.03072 
624 1 1 0.0451449 0.00890653 0.00390657 0 0 0 3.13781e-07 2.87855e-08 -2.56952e-07 1.43853e-07 1.44359e-07 -9.85228e-08 2.85737e-06 5.17582e-05 -1.75005e-05 0.004 783.566 -1.77137 
613 1 1 -0.0372991 0.0135339 0.00384344 0 0 0 1.65772e-07 -1.30094e-07 9.7218e-08 -8.41508e-08 1.08109e-08 2.08523e-09 -8.77643e-07 2.65958e-05 9.96446e-06 0.004 327.273 2.16739 
265 1 1 -0.0293062 0.0135429 0.00396372 0 0 0 2.81792e-07 -1.97782e-07 8.48185e-08 -6.25392e-08 -4.36262e-08 -2.52484e-08 -5.16822e-06 3.92441e-06 -1.46462e-05 0.004 350.593 2.6659 
273 1 1 -0.0213694 0.0141274 0.00392939 0 0 0 4.10625e-07 -2.92735e-07 -3.43444e-08 -7.77762e-08 -9.84749e-08 -9.95085e-08 4.82541e-05 6.34689e-05 2.7848e-05 0.004 377.853 2.79515 
492 1 1 -0.01145 0.0123712 0.00398079 0 0 0 5.81119e-07 -4.13662e-07 -3.38666e-07 5.61262e-09 -6.10391e-08 -2.46964e-07 5.88959e-05 6.12452e-05 7.87392e-06 0.004 452.632 2.16807 
234 1 1 0.00585285 0.010393 0.00392891 0 0 0 8.08986e-07 -2.85219e-07 -7.40149e-07 2.10045e-07 1.07831e-07 -4.00706e-07 0.000114736 8.42612e-05 7.01994e-05 0.004 593.179 -0.878782 
160 1 1 0.0142843 0.0106356 0.00390958 0 0 0 8.05149e-07 -1.72526e-07 -8.17106e-07 3.21733e-07 2.33205e-07 -4.22796e-07 5.44598e-05 0.000115857 -4.96401e-05 0.004 671.927 -2.34325 
484 1 1 0.0220893 0.0120738 0.0039012 0 0 0 5.21436e-07 -2.21073e-07 -6.39112e-07 1.71562e-07 1.66562e-07 -3.49211e-07 2.09723e-05 7.13589e-06 2.96538e-05 0.004 719.826 -2.78192 
743 1 1 0.0300184 0.0126216 0.00398127 0 0 0 3.70875e-07 1.50613e-08 -2.4203e-07 1.0765e-07 2.66632e-07 -7.93868e-08 1.68163e-05 -2.07535e-05 3.67447e-05 0.004 748.578 -2.66685 
514 1 1 0.0379536 0.0130186 0.00386906 0 0 0 4.26098e-07 4.22183e-08 -4.60314e-07 1.17462e-07 1.93671e-07 -1.63635e-07 -2.80531e-05 9.17112e-05 -5.03931e-05 0.004 770.523 -2.24828 
530 1 1 -0.0159002 0.0198648 0.00392796 0 0 0 4.34566e-07 -2.33883e-07 -2.51031e-07 1.69838e-08 -8.91278e-08 -2.38601e-07 4.3867e-05 0.000114326 -7.48004e-06 0.004 406.697 2.72524 
227 1 1 -0.00736503 0.0192084 0.00396595 0 0 0 4.85187e-07 -3.46503e-07 -4.15658e-07 5.46836e-08 -1.01171e-07 -2.96552e-07 3.65771e-05 5.71467e-05 4.08053e-05 0.004 486.483 1.56368 
392 1 1 -0.000498631 0.0151513 0.00394446 0 0 0 6.47856e-07 -3.69301e-07 -5.77552e-07 6.65641e-08 1.74197e-08 -4.08638e-07 4.56644e-05 1.46536e-05 8.78952e-06 0.004 538.607 0.351002 
493 1 1 0.00985839 0.0172531 0.00394648 0 0 0 6.24631e-07 -2.10952e-08 -6.55496e-07 2.31811e-07 2.62452e-07 -4.29855e-07 -5.05422e-05 4.07044e-05 5.31019e-06 0.004 630.617 -1.61321 
34 1 1 0.0176357 0.0187852 0.003941 0 0 0 4.88181e-07 -4.86446e-08 -6.96349e-07 1.76814e-07 2.63619e-07 -4.32121e-07 -3.79888e-06 3.46495e-05 -2.17372e-05 0.004 684.168 -2.44959 
206 1 1 0.0255397 0.0192353 0.00396993 0 0 0 3.50592e-07 -3.97e-08 -4.4005e-07 1.21184e-07 2.29811e-07 -2.74778e-07 -2.61102e-05 -6.36696e-05 5.6692e-06 0.004 727.717 -2.79938 
104 1 1 0.0334175 0.0199346 0.0038965 0 0 0 4.28506e-07 3.66946e-08 -4.18776e-07 1.55778e-07 1.81391e-07 -1.66136e-07 -1.62196e-05 9.21819e-05 1.07638e-05 0.004 754.08 -2.67893 
809 1 1 -0.0412058 0.0204949 0.00395497 0 0 0 6.08853e-08 -7.44266e-08 3.46518e-08 -3.99457e-08 -2.01947e-08 -2.03453e-08 1.91156e-06 7.39812e-06 2.58227e-06 0.004 322.109 2.13968 
773 1 1 -0.0331523 0.0204531 0.00393522 0 0 0 2.03909e-07 -1.33757e-07 3.97774e-08 -5.01613e-08 -3.21984e-08 1.00244e-08 6.15777e-06 3.63586e-05 2.15425e-05 0.004 342.067 2.74857 
792 1 1 0.00347677 0.0219735 0.00392106 0 0 0 4.65561e-07 -1.30704e-07 -5.06991e-07 5.09468e-08 1.12592e-07 -3.94248e-07 1.8765e-05 8.07734e-05 5.3927e-05 0.004 579.042 -0.591445 
718 1 1 0.0413199 0.0203659 0.00392989 0 0 0 2.51893e-07 2.49717e-08 -2.72977e-07 9.90776e-08 1.08666e-07 -1.1118e-07 8.45347e-06 -9.04597e-06 1.13394e-05 0.004 769.339 -2.40751 
101 1 1 -0.0371146 0.0272995 0.00390402 0 0 0 6.3457e-08 -8.73059e-08 3.91712e-08 -2.38372e-08 -2.30639e-08 -5.14432e-09 7.66677e-06 6.25957e-06 5.96402e-07 0.004 334.701 2.63105 
246 1 1 -0.0290567 0.0272807 0.00398271 0 0 0 2.24225e-07 -8.51263e-08 -2.22403e-08 3.37196e-08 -2.17338e-08 -2.4937e-08 1.02783e-05 3.79378e-05 -2.60093e-05 0.004 349.835 3.14336 
331 1 1 -0.0212281 0.0257798 0.00390018 0 0 0 2.58687e-07 -1.91692e-07 -1.22222e-07 7.23776e-09 -6.78145e-08 -6.87602e-08 1.30496e-05 4.92414e-06 1.74815e-05 0.004 380.539 3.01141 
846 1 1 -0.0134708 0.0274168 0.0039748 0 0 0 2.93337e-07 -1.12588e-07 -1.51378e-07 2.44356e-08 -9.85835e-08 -1.03675e-07 3.82197e-05 4.23147e-05 2.74561e-05 0.004 425.93 2.46683 
348 1 1 -0.00329916 0.0260612 0.00393374 0 0 0 3.12231e-07 -1.97244e-07 -3.66503e-07 -8.24129e-08 1.28102e-08 -3.09434e-07 2.82434e-05 -2.55852e-06 1.77732e-05 0.004 523.469 0.681904 
786 1 1 0.00840353 0.0281551 0.00389685 0 0 0 2.62567e-07 -5.35943e-08 -5.29876e-07 -1.14781e-08 1.68671e-07 -4.27179e-07 1.58835e-05 2.53933e-05 -3.87502e-06 0.004 615.826 -1.47442 
316 1 1 0.0162833 0.0272928 0.0039063 0 0 0 2.58761e-07 8.44708e-09 -3.94417e-07 5.28007e-08 2.0368e-07 -2.85081e-07 4.31711e-05 -3.35631e-06 9.91794e-06 0.004 676.055 -2.63072 
495 1 1 0.0288861 0.0264618 0.00396716 0 0 0 3.15598e-07 7.04154e-09 -3.39191e-07 1.19399e-07 1.91614e-07 -2.22367e-07 -2.76545e-05 -1.45525e-06 -9.82213e-06 0.004 739.64 -2.99498 
863 1 1 0.0367263 0.0277633 0.00392936 0 0 0 2.07313e-07 1.03358e-08 -1.68643e-07 5.97856e-08 1.14502e-07 -8.72379e-08 7.9266e-06 2.07489e-05 2.47564e-05 0.004 760.109 -2.82875 
511 1 1 -0.00761835 0.0327132 0.00388553 0 0 0 2.25497e-07 -9.10202e-08 -2.14822e-07 -1.21049e-07 3.88749e-08 -2.66477e-07 2.40947e-05 5.87063e-05 -1.18589e-05 0.004 493.894 1.30357 
722 1 1 0.00164033 0.0322874 0.00396636 0 0 0 2.83441e-07 -1.35123e-08 -3.64396e-07 -3.27641e-08 9.44831e-08 -2.99207e-07 -3.09e-05 7.1556e-05 3.27647e-06 0.004 564.193 -0.308083 
2 1 1 0.0229311 0.031696 0.00396244 0 0 0 3.70214e-07 -5.50767e-09 -3.46378e-07 1.2511e-07 1.11058e-07 -2.54347e-07 1.58368e-05 7.07064e-05 9.75655e-06 0.004 706.831 -3.16876 
254 1 1 0.030547 0.0343205 0.0039815 0 0 0 0.000481608 -0.000706171 -3.57156e-15 -1.89245e-18 6.36029e-19 1.73472e-17 0.176952 0.120681 -0.0211551 0.004 798.547 0 
257 1 1 -0.0296322 0.0352231 0.00395613 0 0 0 1.38778e-07 -1.1573e-08 -4.8463e-08 -1.37713e-09 -1.41404e-08 -4.89202e-08 -5.82998e-06 3.04764e-05 3.06512e-05 0.004 353.883 3.38224 
582 1 1 -0.0157655 0.0356206 0.00393205 0 0 0 2.60821e-07 -2.50215e-07 -2.52644e-07 -5.16734e-08 2.12972e-07 -1.22591e-07 8.38842e-05 7.20991e-05 -3.38593e-05 0.004 400.804 3.48509 
255 1 1 -0.00267125 0.038932 0.00391148 0 0 0 1.89158e-07 -2.57128e-08 -2.69292e-07 -1.28669e-07 4.67809e-08 -2.3182e-07 8.78012e-06 3.27572e-05 1.42993e-05 0.004 525.486 0.631161 
887 1 1 0.00812084 0.0373183 0.00392889 0 0 0 2.93466e-07 7.63797e-08 -3.04902e-07 8.31095e-09 1.93555e-07 -2.58375e-07 5.12709e-06 3.98579e-05 -1.25924e-06 0.004 629.866 -2.10927 
719 1 1 0.0157853 0.0351951 0.00398363 0 0 0 1.85431e-07 4.01448e-09 -1.63942e-07 -7.66949e-09 9.40027e-08 -1.42679e-07 7.36739e-06 -2.33491e-05 9.21823e-06 0.004 675.518 -2.91772 
21 1 1 0.0234243 0.0396338 0.00391497 0 0 0 1.06647e-07 -4.3318e-09 -1.08474e-07 -1.17371e-08 5.39472e-08 -4.95463e-08 1.73272e-05 1.28472e-05 2.61441e-05 0.004 708.37 -3.38111 
325 1 1 -0.0222388 0.0402984 0.00393951 0 0 0 1.35023e-07 -4.50037e-08 -3.1302e-08 -3.10337e-08 1.53628e-08 -6.34684e-08 2.62915e-06 8.07821e-06 2.33856e-05 0.004 389.473 3.60552 
595 1 1 -0.014931 0.0435393 0.00398254 0 0 0 1.55629e-07 -8.13076e-08 3.88486e-09 -3.46346e-08 5.84747e-08 -9.75837e-08 6.30792e-07 2.34419e-05 3.17526e-05 0.004 423.35 3.23625 
568 1 1 0.0162912 0.0430934 0.00392629 0 0 0 9.09159e-08 2.72607e-08 -1.02861e-07 -3.11119e-08 6.34269e-08 -5.58043e-08 -4.43314e-06 -2.84895e-06 -9.79385e-06 0.004 672.331 -2.90403 
387 1 1 -0.00719691 0.045487 0.00389933 0 0 0 9.02251e-08 -1.18808e-08 -1.17488e-07 -3.53304e-08 2.8643e-08 -1.14952e-07 1.48579e-05 1.77145e-05 8.89938e-06 0.004 497.465 1.40505 
852 1 1 0.000758887 0.0460615 0.00397617 0 0 0 7.1509e-08 -1.56882e-08 -1.05025e-07 -2.27976e-08 7.96501e-09 -8.98581e-08 2.74616e-05 -4.93087e-06 9.05258e-06 0.004 554.179 -0.107589 
157 1 1 0.00865317 0.0452492 0.00389824 0 0 0 1.24549e-07 6.77343e-08 -1.58445e-07 -7.25987e-09 1.30013e-07 -1.54949e-07 5.40047e-06 1.59279e-05 2.13994e-05 0.004 621.504 -1.84974 
400 1 1 -0.024752 -0.0387964 0.00974418 0 0 0 -7.249e-08 -6.762e-08 -1.16117e-07 -3.15409e-09 9.91321e-09 4.80227e-09 -2.51629e-06 3.75175e-05 7.18365e-06 0.004 384.688 3.4863 
606 1 1 -0.000653937 -0.0387266 0.00813891 0 0 0 -1.19704e-07 -5.92566e-07 -9.45845e-07 8.03086e-08 1.20619e-08 1.31952e-08 3.85764e-05 6.04789e-05 -7.56472e-05 0.004 549.473 0.16248 
724 1 1 -0.0339144 -0.0311598 0.00984801 0 0 0 5.54842e-08 -8.37474e-08 6.08194e-08 8.54942e-09 1.93649e-08 1.09134e-08 1.72906e-05 -6.1368e-07 -1.15853e-05 0.004 346.027 2.90674 
183 1 1 0.0251947 -0.0311656 0.00751475 0 0 0 2.48883e-07 -1.44843e-07 -1.13736e-06 1.48574e-07 8.82993e-08 -4.1575e-07 -0.000118186 1.09828e-05 -3.49419e-06 0.004 715.556 -3.22803 
544 1 1 -0.0140218 -0.0253028 0.00874964 0 0 0 8.09687e-08 -7.3542e-07 -7.59991e-07 1.62095e-07 -5.65091e-08 -6.2626e-08 1.60149e-05 6.7948e-05 -4.99761e-05 0.004 432.175 2.50724 
29 1 1 -0.00450628 -0.0263793 0.00900728 0 0 0 6.38239e-08 -8.44567e-07 -1.37195e-06 1.63311e-07 -1.77546e-08 -6.87281e-08 0.000107698 9.31068e-05 -3.95693e-05 0.004 504.261 1.1536 
248 1 1 0.00349901 -0.0278426 0.00763308 0 0 0 9.71426e-08 -6.53362e-07 -1.41245e-06 1.63696e-08 -1.80463e-08 -2.36306e-07 -0.00015313 -3.02345e-05 2.72182e-05 0.004 582.516 -0.811652 
79 1 1 0.035837 -0.0289489 0.00959647 0 0 0 1.86174e-07 -2.49266e-07 -6.25276e-07 8.43562e-08 -5.32991e-08 -3.38632e-07 6.57428e-05 -0.000152546 5.62411e-05 0.004 750.299 -2.99099 
291 1 1 -0.00458871 -0.0173975 0.00909523 0 0 0 4.27881e-07 -7.38709e-07 -1.17077e-06 8.06488e-08 7.33062e-08 -3.18185e-07 -1.49088e-05 3.10422e-05 2.27834e-05 0.004 512.543 0.81631 
891 1 1 0.00373489 -0.015528 0.00632508 0 0 0 3.568e-07 -6.73522e-07 -1.32915e-06 1.57896e-07 -4.43124e-08 -5.24144e-07 -6.15951e-05 -2.53927e-05 -7.49081e-05 0.004 582.138 -0.739889 
870 1 1 0.0138323 -0.0156364 0.00831017 0 0 0 9.80708e-07 -5.41007e-07 -1.81608e-06 6.02356e-07 1.49278e-07 -7.21647e-07 1.15093e-05 -2.50647e-05 5.57967e-05 0.004 663.158 -2.35828 
777 1 1 0.034969 -0.018778 0.00771 0 0 0 1.05447e-09 -3.35294e-07 -3.12462e-07 1.77625e-07 1.98041e-07 -8.94651e-08 3.63074e-05 -3.37684e-05 8.50393e-05 0.004 763.214 -2.64874 
837 1 1 -0.029449 -0.0146727 0.00803326 0 0 0 3.94164e-07 -2.74392e-07 5.02255e-08 3.16128e-08 1.01498e-08 6.20547e-08 2.71902e-05 4.13461e-05 -4.38138e-05 0.004 347.143 2.56515 
445 1 1 -0.0181359 -0.0138493 0.00995276 0 0 0 7.21146e-07 -8.50306e-07 -8.8069e-07 -1.85962e-08 -9.74592e-08 -9.16061e-08 7.94044e-05 9.94399e-05 -4.99624e-05 0.004 401.855 2.58947 
783 1 1 0.00485899 -0.00860657 0.00993769 0 0 0 1.39704e-06 -1.08127e-06 -1.75506e-06 4.9637e-07 -1.73104e-07 -8.71659e-07 6.72919e-05 8.83831e-05 -0.000154027 0.004 594.22 -0.980317 
615 1 1 -0.0350999 -0.000758714 0.00955182 0 0 0 4.99385e-07 -3.41746e-07 1.35312e-07 -8.40523e-08 1.08822e-08 4.71491e-08 2.98022e-05 5.07518e-05 -3.46969e-05 0.004 328.894 2.06417 
476 1 1 -0.0459522 0.00262139 0.00988978 0 0 0 1.51428e-07 -1.31526e-07 1.6969e-07 -1.87489e-08 -4.38791e-09 6.42708e-08 7.37218e-07 -1.36889e-05 -3.79996e-06 0.004 313.375 1.56755 
16 1 1 -0.0210456 0.00169438 0.00830926 0 0 0 7.72392e-07 -6.05321e-07 -4.35584e-07 -1.5748e-07 -7.90274e-08 -2.75642e-07 2.13077e-05 7.6069e-05 -3.17933e-05 0.004 382.745 2.59646 
303 1 1 0.0459492 0.00350463 0.00962657 0 0 0 3.36356e-07 -5.42389e-08 -5.26974e-07 1.86587e-07 2.8838e-07 -1.87831e-07 3.60601e-05 -0.000107905 1.5471e-05 0.004 784.712 -1.6923 
523 1 1 -0.0389797 0.0080308 0.00932861 0 0 0 3.81453e-07 -3.13326e-07 3.08548e-07 -1.56996e-08 1.21526e-08 1.06074e-07 4.31043e-05 3.09697e-05 -1.62289e-05 0.004 322.865 1.94371 
704 1 1 -0.010798 0.00519222 0.0074386 0 0 0 1.01196e-06 -7.08872e-07 -1.09296e-06 -6.23621e-08 -1.54517e-08 -7.09422e-07 7.60428e-05 3.18345e-05 2.90964e-05 0.004 451.175 1.96632 
454 1 1 0.0010118 0.00715931 0.00933957 0 0 0 1.4821e-06 -6.6829e-07 -1.446e-06 3.65011e-07 2.00292e-07 -8.5646e-07 -6.73679e-05 2.94995e-05 -1.81682e-06 0.004 554.101 -0.0701544 
31 1 1 0.0102164 0.0054759 0.00832591 0 0 0 1.5592e-06 -7.08547e-07 -1.85804e-06 5.74782e-07 1.16789e-07 -9.65622e-07 0.00015942 8.18666e-05 5.00385e-05 0.004 635.011 -1.76023 
135 1 1 0.0188886 0.00749169 0.00960784 0 0 0 1.3678e-06 -4.75858e-07 -1.2298e-06 6.38518e-07 2.66316e-07 -5.68875e-07 -7.94517e-05 0.000191571 -3.54455e-05 0.004 711.363 -2.94324 
712 1 1 0.0281139 0.00743266 0.00998856 0 0 0 1.22403e-06 -5.19128e-08 -1.51947e-06 5.73682e-07 6.03928e-07 -6.93061e-07 -0.000175389 0.000104845 -2.78586e-05 0.004 746.358 -2.6916 
210 1 1 0.0394934 0.00814606 0.0098988 0 0 0 7.73964e-07 -4.49637e-08 -8.77248e-07 3.0102e-07 3.52054e-07 -2.69996e-07 4.84672e-05 8.07192e-05 -1.01292e-05 0.004 777.733 -1.98851 
651 1 1 -0.0437987 0.0143398 0.00823566 0 0 0 1.57139e-07 -1.08305e-07 1.2078e-07 -3.50317e-08 1.00847e-08 2.00627e-08 -9.65926e-06 9.10423e-06 -8.07768e-07 0.004 319.278 1.91077 
621 1 1 0.0437182 0.0147846 0.00900765 0 0 0 4.65018e-07 -1.97142e-08 -4.4217e-07 1.47619e-07 1.69978e-07 -1.67737e-07 3.64738e-05 -5.97267e-05 3.42849e-05 0.004 775.818 -2.09752 
726 1 1 -0.0257657 0.0199972 0.00692824 0 0 0 3.31539e-07 -2.51181e-07 -5.51807e-08 -6.68208e-08 -6.93507e-08 -9.44735e-08 -5.24993e-05 -2.12441e-05 -9.44714e-06 0.004 361.218 2.91167 
230 1 1 -0.00847466 0.024595 0.00973776 0 0 0 7.07632e-07 -3.89214e-07 -6.61255e-07 -1.01714e-08 -1.07391e-07 -5.48009e-07 -1.69968e-05 6.83325e-05 -2.56897e-05 0.004 485.695 1.47004 
320 1 1 -0.00171266 0.020405 0.00979386 0 0 0 8.71428e-07 -5.47804e-07 -9.98639e-07 1.68837e-07 1.78186e-07 -7.84132e-07 -3.27092e-05 4.4393e-06 9.22273e-07 0.004 536.278 0.40828 
7 1 1 0.0129211 0.0224303 0.00918518 0 0 0 9.10007e-07 -1.28826e-07 -1.03062e-06 2.61211e-07 4.03957e-07 -7.14792e-07 3.87543e-05 9.05209e-05 5.70612e-05 0.004 656.5 -2.20149 
83 1 1 0.0214164 0.0239651 0.00888426 0 0 0 6.51925e-07 -1.20192e-07 -9.20705e-07 2.49563e-07 3.47594e-07 -5.89023e-07 8.1642e-05 0.000132482 6.06426e-05 0.004 715.01 -2.9154 
747 1 1 -0.0337321 0.0313835 0.00974072 0 0 0 1.98982e-07 -9.2068e-08 -4.36705e-08 -5.45294e-08 -1.11931e-08 -6.48577e-08 -6.62364e-06 4.77749e-05 1.05825e-05 0.004 348.797 2.95986 
51 1 1 -0.0226192 0.0329654 0.00703451 0 0 0 2.79214e-07 -1.33881e-07 -1.71686e-07 8.20548e-09 -1.07026e-08 -8.09792e-08 9.97271e-06 -3.00255e-06 -1.69093e-05 0.004 373.81 3.43456 
116 1 1 -0.00940735 0.0391203 0.00809817 0 0 0 3.04831e-07 -4.49545e-08 -2.17568e-07 -1.73524e-07 1.00137e-07 -3.46953e-07 -2.08112e-05 1.18911e-05 2.73006e-05 0.004 487.433 1.56617 
205 1 1 -0.000560455 -0.0460776 0.0110171 0 0 0 -1.5322e-07 -3.68936e-07 -5.8721e-07 5.1159e-08 1.75833e-08 3.39077e-08 -0.000114112 -4.16326e-05 6.07355e-05 0.004 550.753 0.164319 
836 1 1 0.00737985 -0.0454688 0.0106611 0 0 0 -2.26716e-08 -3.1603e-07 -5.93004e-07 6.58471e-08 1.00238e-08 2.09567e-08 -4.67921e-05 4.22777e-05 7.09961e-06 0.004 595.097 -1.1611 
486 1 1 -0.0156916 -0.0402432 0.0103352 0 0 0 -2.21164e-07 -2.87943e-07 -3.94877e-07 -7.33641e-10 8.82535e-08 9.22319e-08 -5.52098e-06 5.80308e-05 -7.96923e-05 0.004 427.958 3.09973 
311 1 1 -0.0083681 -0.0439882 0.0106791 0 0 0 -8.70297e-08 -5.47341e-07 -5.66314e-07 -8.54166e-08 7.86427e-08 6.05021e-08 9.57461e-05 -4.4207e-05 4.69656e-05 0.004 478.842 2.66371 
447 1 1 0.0180551 -0.0423881 0.0118323 0 0 0 6.49641e-08 -2.9783e-07 -5.54475e-07 3.34906e-08 -8.25719e-09 -1.46425e-07 -4.6419e-05 -9.91846e-05 4.19901e-05 0.004 658.931 -2.72829 
538 1 1 -0.0295743 -0.035351 0.0149849 0 0 0 4.82472e-08 -1.64623e-07 3.6384e-08 2.50989e-08 1.8377e-08 -1.28607e-08 1.88307e-05 6.67567e-06 -1.04955e-05 0.004 361.923 3.18104 
279 1 1 0.011155 -0.0385417 0.0114152 0 0 0 1.50718e-07 -6.44914e-07 -1.31824e-06 1.11305e-07 -5.28133e-09 -1.16742e-07 9.99468e-06 -2.95878e-05 -1.22564e-05 0.004 625.985 -1.92053 
110 1 1 0.0250464 -0.0386627 0.0117241 0 0 0 1.01741e-07 -2.73776e-07 -4.75621e-07 1.49072e-08 -4.47001e-08 -6.43328e-08 -1.05466e-05 -7.21935e-06 -3.84085e-06 0.004 696.763 -3.23758 
188 1 1 -0.0179041 -0.0321007 0.0101564 0 0 0 -3.08683e-08 -5.86229e-07 -5.54808e-07 1.03517e-07 7.5016e-09 6.73862e-09 5.14266e-05 3.12085e-05 -7.02686e-06 0.004 413.101 2.89228 
810 1 1 -0.0102601 -0.034451 0.0102036 0 0 0 -2.21308e-08 -7.42763e-07 -9.73498e-07 1.29541e-07 -4.59923e-09 7.22983e-09 3.03063e-05 7.94916e-05 -5.99045e-05 0.004 463.424 2.17759 
412 1 1 -0.00316744 -0.0328806 0.0133527 0 0 0 1.77911e-07 -1.14327e-06 -1.90126e-06 2.16084e-07 1.03821e-08 -2.81979e-08 1.00942e-05 5.50249e-05 -8.0429e-06 0.004 515.15 0.933554 