ITEM: TIMESTEP
10400
ITEM: NUMBER OF ATOMS
891
ITEM: BOX BOUNDS mm mm mm
-0.05 0.05
-0.05 0.05
0 0.15
ITEM: ATOMS id type type x y z ix iy iz vx vy vz fx fy fz omegax omegay omegaz radius f_Temp[0] f_heatFlux[0] 
199 1 1 -0.00444148 -0.0458152 0.00397331 0 0 0 0.0002865 -0.000181395 -0.000635931 -0.000492155 0.000528102 -0.000279263 -0.0832843 -0.0701147 0.00906951 0.004 300 0 
873 1 1 -0.0201502 -0.0414765 0.00390167 0 0 0 -3.52956e-05 -0.000189203 -0.000466001 -6.70691e-06 -0.000475502 0.000115901 -0.051992 0.0266813 -0.027775 0.004 300 0 
485 1 1 -0.0126791 -0.0442513 0.00397357 0 0 0 -5.94783e-05 -0.000339298 -0.00045715 -0.000678104 0.000222963 0.000172703 -0.125386 0.0635891 -0.0141731 0.004 300 0 
850 1 1 0.0033609 -0.0441729 0.00394148 0 0 0 0.000394428 0.00174567 -0.000699021 -8.45153e-05 -0.000190619 0.000999759 -0.446136 0.0349089 0.518151 0.004 300 0 
186 1 1 0.0114361 -0.0445986 0.0039312 0 0 0 0.000651078 0.000705378 -0.000626963 0.000569724 -0.000156186 0.00139795 -0.143949 -0.272907 -0.121947 0.004 300 0 
560 1 1 0.0189683 -0.0420007 0.00394441 0 0 0 0.000132636 4.72121e-05 -0.000111045 -0.000391816 0.000337103 0.000680971 -0.035123 -0.00516695 -0.109511 0.004 300 0 
102 1 1 -0.0147515 -0.0357252 0.00386324 0 0 0 -8.63312e-05 -0.000598468 -0.000475111 1.66133e-05 -0.000547752 0.00024569 0.0629802 -0.0259307 -0.0226418 0.004 300 0 
88 1 1 -0.00730509 -0.0383813 0.00393019 0 0 0 -0.000158143 -0.00082859 -0.000219769 -0.000792561 0.000459857 0.00109526 0.261614 -0.10205 -0.046916 0.004 300 0 
776 1 1 0.00520492 -0.035428 0.00394908 0 0 0 -0.000331964 -0.000170174 -0.000309008 -0.000525502 -0.000474911 0.000438682 0.0278828 -0.0613146 -0.0505204 0.004 300 0 
410 1 1 0.0130217 -0.0368136 0.00392226 0 0 0 6.48419e-05 0.000235142 -0.000349097 -0.000978865 -0.00084479 0.000567193 0.00583897 0.0231801 0.1351 0.004 300 0 
282 1 1 0.0258765 -0.0381332 0.0038846 0 0 0 3.30897e-05 -0.000603122 0.000132395 0.000103903 0.000734263 -0.000165725 0.13406 -0.0188489 0.0367926 0.004 300 0 
682 1 1 -0.0301995 -0.0348806 0.0039385 0 0 0 -0.000107682 -0.000126657 -0.00021664 4.00674e-05 0.000485894 0.000112505 -0.000955636 0.024956 -0.00493546 0.004 300 0 
251 1 1 -0.0224156 -0.0338442 0.00392968 0 0 0 -0.00028537 -0.00029223 -0.000470192 0.000343903 -0.000510183 0.000633891 0.0471596 -0.00520237 0.0231732 0.004 300 0 
770 1 1 -0.00204473 -0.0321353 0.00393946 0 0 0 -0.000512108 -0.000332743 -0.000574642 -0.000288667 -0.000625325 0.000578955 0.0671571 -0.0108147 -0.141198 0.004 300 0 
883 1 1 0.0181667 -0.0307596 0.00390178 0 0 0 7.27473e-05 -0.000603807 -0.000423172 -0.000626975 -0.000415156 -6.20307e-05 0.243773 0.0954103 -0.183435 0.004 300 0 
838 1 1 0.0320318 -0.033108 0.00396511 0 0 0 -8.34258e-06 -0.000413972 0.000397219 0.000499665 0.00069346 -0.000320376 0.0490622 0.103809 0.0578287 0.004 300 0 
617 1 1 -0.0372519 -0.0271286 0.00391797 0 0 0 -4.77925e-05 -0.000213493 -0.000288465 0.000161375 0.000619695 -0.000209098 0.063669 0.0188294 -0.0114416 0.004 300 0 
824 1 1 -0.0292961 -0.0270358 0.00392655 0 0 0 -3.26664e-05 -0.000166932 -0.000139249 -3.95571e-05 0.000349254 -0.000389945 -0.0148872 -0.0300673 -0.0338223 0.004 300 0 
571 1 1 -0.0202599 -0.0262167 0.00393378 0 0 0 0.000482917 -0.000305173 -0.00109958 -0.000309555 -0.000198813 0.000965315 -0.0365619 0.184419 -0.368268 0.004 300 0 
861 1 1 -0.00958823 -0.0297218 0.00389881 0 0 0 -0.000529466 -0.000381321 -0.000981854 0.000860719 -0.00111863 0.000727051 -0.0556336 -0.0838648 0.156021 0.004 300 0 
434 1 1 0.0103446 -0.0293779 0.00393078 0 0 0 -0.000527995 -0.000196671 -0.000161164 -0.000471546 -0.00055276 0.000417549 0.0207577 -0.0802443 0.0993707 0.004 300 0 
103 1 1 0.0311504 -0.025232 0.0039393 0 0 0 -0.000342689 -0.000409352 0.000325819 0.000657867 0.000407679 0.000636748 0.0519696 -0.109476 0.0303669 0.004 300 0 
769 1 1 -0.0413422 -0.0202869 0.00398188 0 0 0 3.50993e-05 -0.000330694 6.36163e-05 -3.36809e-05 0.00015854 -0.00015844 0.0587694 0.0162265 -0.064937 0.004 300 0 
94 1 1 -0.0333761 -0.0202295 0.00393528 0 0 0 8.17831e-05 -0.000232079 -0.000196437 0.000129619 0.00020316 -0.000341643 -0.0129776 0.0448918 0.0310475 0.004 300 0 
40 1 1 -0.0254057 -0.0201439 0.00391387 0 0 0 -0.000142342 -4.36576e-05 -0.000351715 0.00032478 0.000361529 0.00021658 0.0147996 0.0389518 0.0822139 0.004 300 0 
19 1 1 -0.00863211 -0.0218766 0.00394184 0 0 0 -0.000689905 -4.43741e-05 -0.00122075 2.79407e-05 6.89363e-05 -4.14412e-05 0.076959 -0.121286 -0.229754 0.004 300 0 
442 1 1 -0.000424236 -0.0218614 0.00393151 0 0 0 -0.00072785 6.2803e-05 -0.000568391 0.000477088 0.000374067 0.000580829 0.0811217 -0.405572 -0.0433543 0.004 300 0 
259 1 1 0.00753879 -0.0219939 0.00392227 0 0 0 -0.000724815 0.00011474 -0.000855599 -0.000165754 0.000695895 1.20689e-05 -0.0807509 -0.228969 -0.169949 0.004 300 0 
512 1 1 0.0153879 -0.0232444 0.00397617 0 0 0 -0.000631587 -0.00105279 -0.000119201 0.000331903 0.000224179 0.000686093 0.109658 0.126579 -0.179593 0.004 300 0 
470 1 1 0.0232527 -0.0243896 0.00391431 0 0 0 -0.000422997 -0.000968509 -0.000606813 0.000207085 0.000650173 0.00076821 0.144523 -0.0948065 0.1591 0.004 300 0 
451 1 1 0.0390263 -0.0244808 0.0039257 0 0 0 -0.000103909 2.32424e-05 0.000549533 0.000582161 0.000477073 -0.000289346 0.00353301 0.0613853 0.026659 0.004 300 0 
531 1 1 -0.0164673 -0.0191918 0.00396279 0 0 0 0.00158608 -0.000206119 -0.000770652 -0.000273724 0.000917845 -0.000958585 0.261914 0.0254132 0.225955 0.004 300 0 
229 1 1 0.0201613 -0.0168987 0.0038703 0 0 0 0.000327901 -0.00170553 -0.000533636 0.000494012 -6.65001e-05 0.000867123 0.381009 0.0434003 0.473117 0.004 300 0 
734 1 1 0.0279852 -0.0179636 0.00392761 0 0 0 0.0001188 -0.000233182 -0.000224507 -5.78663e-05 0.000614971 -4.69026e-06 -0.106054 -0.0717711 -0.100085 0.004 300 0 
635 1 1 0.0425977 -0.0174449 0.00392096 0 0 0 0.000196385 0.0003477 9.50919e-06 0.000100341 -0.000635506 -0.00138794 -0.107857 0.0942546 -0.061115 0.004 300 0 
87 1 1 -0.0448169 -0.0104834 0.00391339 0 0 0 0.00014831 2.74921e-05 -5.27219e-05 0.000538235 -0.00023295 2.96286e-06 -0.0173416 -0.0140467 -0.102248 0.004 300 0 
406 1 1 -0.0373886 -0.013395 0.00396057 0 0 0 0.000251006 -0.000610604 0.00036944 0.000424405 -7.14236e-06 0.000314444 0.155456 0.0832193 -0.0211751 0.004 300 0 
224 1 1 -0.0230617 -0.0125994 0.00388048 0 0 0 -0.000496473 -5.86676e-05 -0.00045564 -0.000282503 0.000690483 -0.000799152 -0.065748 -0.0968919 -0.0727381 0.004 300 0 
751 1 1 -0.0102943 -0.014158 0.00396963 0 0 0 0.000227954 0.000551442 -0.000271528 -0.000923892 0.00044583 -0.000425531 0.0171482 0.278313 0.00633208 0.004 300 0 
622 1 1 -0.00272922 -0.0117547 0.00387946 0 0 0 -0.000596179 0.000700661 -0.000534821 0.000414539 0.000851045 0.000443343 -0.0795034 -0.157554 0.0630152 0.004 300 0 
128 1 1 0.00953412 -0.0107356 0.00388488 0 0 0 -0.000903205 0.000560948 -0.000754609 -0.000179218 0.00111709 0.000286941 -0.0817611 -0.337472 -0.0488609 0.004 300 0 
68 1 1 0.0262987 -0.0102235 0.00395298 0 0 0 -0.000677351 -0.000838478 -0.000869749 -0.000799359 0.000932967 0.000752381 0.123838 -0.226979 0.235215 0.004 300 0 
791 1 1 0.0351202 -0.0123335 0.00394817 0 0 0 -0.0108986 0.00383629 0.000544755 0.000478871 0.00104493 0.00181952 -0.842669 -2.74994 0.255376 0.004 300 0 
354 1 1 -0.0381084 -0.00550844 0.00392281 0 0 0 0.00019709 -2.42643e-05 -9.25948e-05 0.000748747 0.000712664 0.00051502 -0.11374 0.0121546 -0.0343299 0.004 300 0 
725 1 1 -0.0305228 -0.00797921 0.00391787 0 0 0 -0.000359679 0.000106427 -0.000136965 4.69825e-05 -0.000297156 0.0013219 0.0547187 -0.107703 -0.0944026 0.004 300 0 
353 1 1 -0.0161261 -0.0088037 0.00390795 0 0 0 -0.000324659 0.000126645 -0.000470224 -0.000583203 0.00137941 -0.000508706 -0.166561 -0.0807764 0.21355 0.004 300 0 
391 1 1 -0.00856894 -0.00640734 0.00390641 0 0 0 -7.70246e-05 0.000677591 -0.000798635 -0.00129849 0.000187105 -0.000630234 -0.133654 0.0397785 -0.0826194 0.004 300 0 
683 1 1 0.0173618 -0.00944246 0.00391742 0 0 0 -0.00054105 -0.00094138 -0.000493579 -0.000280596 0.000640825 -0.000560439 0.121546 -0.182506 -0.312999 0.004 300 0 
690 1 1 0.038574 -0.00515864 0.00388681 0 0 0 0.0010167 -0.00143042 -0.000180712 -0.000988538 -0.000335458 0.000713999 0.312351 0.342761 -0.22918 0.004 300 0 
10 1 1 0.0449602 -0.0099039 0.00397249 0 0 0 0.000795371 9.81928e-05 -7.45328e-05 -0.000460541 -0.000857433 -7.07398e-05 0.0843791 0.0738577 -0.102731 0.004 300 0 
402 1 1 -0.0460135 -0.00265527 0.0039255 0 0 0 0.000104212 0.000230242 -0.000384594 -0.00035627 1.84697e-05 0.00019262 -0.0363571 0.0753516 0.0990088 0.004 300 0 
761 1 1 -0.0294637 -0.000159775 0.00393016 0 0 0 -9.96707e-05 0.000233896 6.62609e-05 -0.000110922 0.000436937 0.000548388 -0.0656134 -0.132799 0.000426895 0.004 300 0 
293 1 1 -0.0229206 -0.00466214 0.00395751 0 0 0 -0.000349885 -0.00056626 0.000132987 -0.000416374 0.000193636 0.000417513 0.271864 -0.00816144 -0.089287 0.004 300 0 
384 1 1 -0.0147217 -0.000886275 0.00398152 0 0 0 -0.00536253 0.00392056 3.68792e-05 -4.13941e-07 -1.07505e-06 -5.88223e-05 -0.98216 -1.34381 0.774077 0.004 300 0 
378 1 1 0.00134975 -0.00493857 0.00393064 0 0 0 -0.000635699 0.000163866 -0.000563667 -0.000629685 0.000314534 0.000405617 0.0436948 -0.10592 -0.3658 0.004 300 0 
390 1 1 0.0103712 -0.00281225 0.00396855 0 0 0 -0.000260219 0.00101169 -0.000252608 -0.000618443 0.000896749 0.00129579 0.220827 0.174708 -0.0663946 0.004 300 0 
411 1 1 0.0223929 -0.00330539 0.00397816 0 0 0 -0.000811126 -0.000364546 -0.000285347 -9.10857e-05 0.000880238 -8.70699e-05 0.0718364 0.337156 -0.279676 0.004 300 0 
342 1 1 0.0307446 -0.0036223 0.0039746 0 0 0 0.000745319 -0.00186576 -0.000123795 -0.000232421 -0.000629019 0.00040827 -0.0506219 0.148582 -0.551983 0.004 300 0 
262 1 1 0.0460231 -0.00206099 0.00395954 0 0 0 0.000597307 0.000196239 8.66382e-06 -0.000471071 0.000213961 -0.00102047 -0.104884 0.119387 0.0579723 0.004 300 0 
261 1 1 -0.0398204 0.00224623 0.00393917 0 0 0 0.000121324 0.000191378 -0.000460368 -0.000367795 0.000423534 0.000254769 0.0322353 0.0645407 -0.0917392 0.004 300 0 
666 1 1 -0.00450572 0.00041936 0.00395371 0 0 0 0.000416234 0.00104665 -0.0007431 -0.00142312 -0.000360723 -0.000294374 0.12722 -0.129284 0.0619489 0.004 300 0 
815 1 1 0.00436185 0.00241382 0.00393183 0 0 0 -0.000510774 6.83104e-05 0.000281043 0.000967422 0.000799723 -0.00011563 0.0199289 -0.113574 0.339389 0.004 300 0 
306 1 1 0.0163757 0.0024273 0.00395744 0 0 0 -5.32674e-05 0.00131822 -0.000661524 0.000371694 0.000917084 -0.000462908 -0.314138 -0.059659 0.0737808 0.004 300 0 
178 1 1 0.0241022 0.00442704 0.00386904 0 0 0 0.000632568 8.58032e-06 -0.000524955 -9.23892e-05 -0.000145186 -0.000427319 0.0678268 0.0990542 -0.182522 0.004 300 0 
862 1 1 0.0320647 0.00423017 0.00393101 0 0 0 0.000811297 -0.00149365 0.000560082 0.000219373 4.67122e-05 -0.000310572 0.291744 0.143797 0.423563 0.004 300 0 
661 1 1 0.0398718 0.00290903 0.00394887 0 0 0 0.00058491 0.000225735 0.000272533 4.57503e-05 0.000314593 -0.000308619 -0.114818 0.0597769 -0.0195581 0.004 300 0 
677 1 1 -0.0453732 0.00789416 0.00393422 0 0 0 -0.00044756 -0.000246263 -0.000136962 0.000180014 0.000538936 -6.43901e-05 -0.032771 0.0154897 -0.059202 0.004 300 0 
12 1 1 -0.0333141 0.00672206 0.00394114 0 0 0 0.00019451 0.000149134 -0.000757537 -0.000275366 0.000531345 6.78503e-05 -0.0432951 -0.00973817 0.0223393 0.004 300 0 
420 1 1 -0.0253926 0.00664655 0.00392607 0 0 0 -2.71922e-05 0.000705409 -0.000344271 -0.000184103 0.000493323 0.000766847 -0.12639 0.0343737 -0.090298 0.004 300 0 
654 1 1 -0.0175097 0.00722722 0.00387747 0 0 0 -0.000115043 -0.000266465 -0.000857831 6.32353e-05 -0.000233861 0.000897985 0.11306 0.0801111 -0.0912625 0.004 300 0 
145 1 1 -0.00453684 0.00833431 0.00385569 0 0 0 0.000368816 0.000928441 -0.000457134 -0.000432278 -0.000120154 -0.000763306 -0.143569 0.0717295 -0.0793264 0.004 300 0 
624 1 1 0.0451436 0.00889835 0.00390562 0 0 0 0.00053377 0.000489798 -0.000161372 0.00015449 0.000504917 -0.000296961 -0.13979 0.162044 -0.055821 0.004 300 0 
613 1 1 -0.0373079 0.0135303 0.00384268 0 0 0 -6.79241e-05 -2.14149e-06 -0.000247559 -9.48108e-05 0.00118439 0.000480009 0.0898703 -0.0640691 0.0437725 0.004 300 0 
265 1 1 -0.0293046 0.0135423 0.00396413 0 0 0 -0.000169671 0.000569564 -0.000228156 0.000737554 -0.000359582 0.000663571 0.0694346 -0.075532 0.161323 0.004 300 0 
273 1 1 -0.0213726 0.0141352 0.00392789 0 0 0 -5.44955e-05 0.000385235 3.10615e-05 0.00106163 0.000914816 -0.000152137 -0.00250207 0.0451808 0.0165192 0.004 300 0 
492 1 1 -0.0114291 0.0123615 0.00397851 0 0 0 -0.000202067 4.85684e-05 -0.00040334 0.00027388 0.000156769 0.000536032 -0.00939014 -0.108656 0.0924969 0.004 300 0 
234 1 1 0.00586692 0.0103706 0.00393177 0 0 0 -0.000295647 0.000808736 2.2157e-05 0.00114585 0.000561782 -0.00117538 -0.173145 -0.111454 0.027506 0.004 300 0 
160 1 1 0.0142898 0.0106419 0.00391135 0 0 0 -0.000194445 0.000331475 -0.000159439 0.00063491 -0.000204839 -9.29642e-05 -0.0921697 0.0367047 -0.276641 0.004 300 0 
484 1 1 0.0220965 0.0120621 0.00390253 0 0 0 -9.10221e-05 0.000177922 -0.000478759 0.000387472 -0.000100574 0.000376907 -0.0911802 -0.0533274 0.297774 0.004 300 0 
743 1 1 0.0300247 0.0126164 0.00398065 0 0 0 0.000291507 -0.000291369 0.000236347 0.000615987 0.00045752 0.000889951 0.217182 0.0194284 -0.165745 0.004 300 0 
514 1 1 0.037961 0.013008 0.00386841 0 0 0 0.0004427 0.000549654 -0.000512845 -0.000235963 0.000850823 0.00109805 -0.140399 0.123007 -0.0557965 0.004 300 0 
530 1 1 -0.0158925 0.01986 0.00392147 0 0 0 -0.000240893 0.000475185 0.000290033 -4.01957e-05 0.00225336 0.0010896 0.092282 -0.107929 -0.0743353 0.004 300 0 
227 1 1 -0.00734052 0.0191902 0.00396414 0 0 0 6.36551e-05 0.000616538 -0.000100975 -0.00135851 0.000446491 -0.000135454 -0.0457132 -0.0160366 -0.0128373 0.004 300 0 
392 1 1 -0.000487901 0.0151171 0.0039419 0 0 0 0.000340197 0.00115572 -0.000284594 -0.00027151 -0.000170754 -0.000771452 0.129627 -0.0235913 -0.119642 0.004 300 0 
493 1 1 0.0098514 0.017247 0.00394561 0 0 0 -0.000202603 0.000600308 -0.000198573 -0.000112296 0.00011022 -0.000811411 -0.0980435 0.00224518 -0.0808972 0.004 300 0 
34 1 1 0.0176332 0.0187881 0.00394059 0 0 0 -0.00034777 0.000168899 6.59396e-05 -0.000346603 -0.000428406 0.000836006 0.00566329 -0.0962262 -0.0367925 0.004 300 0 
206 1 1 0.0255408 0.0192266 0.0039696 0 0 0 -0.000150087 -0.000217135 0.000233133 0.000219125 -0.000146867 6.4987e-05 0.116767 0.0587202 -0.0690761 0.004 300 0 
104 1 1 0.0334204 0.0199245 0.00389684 0 0 0 5.47007e-05 -0.000113974 -0.000394223 7.86518e-05 0.000419182 0.000723931 -0.0054366 0.0784565 0.0832834 0.004 300 0 
809 1 1 -0.0412108 0.0204876 0.00395661 0 0 0 -7.11455e-05 -7.15471e-05 -0.000309707 0.000367287 0.000977048 -0.000345672 0.196637 -0.156328 0.0288661 0.004 300 0 
773 1 1 -0.0331529 0.0204527 0.00393628 0 0 0 -0.000263349 0.000193382 0.000324333 0.000762259 -0.000189967 0.00100257 0.100349 -0.0874422 -0.120079 0.004 300 0 
792 1 1 0.00346363 0.021958 0.00392436 0 0 0 2.95217e-05 0.000832508 -0.000416255 -0.00090149 -1.41022e-05 -0.000341478 -0.199939 0.0577717 0.0930125 0.004 300 0 
718 1 1 0.0413254 0.0203504 0.00392939 0 0 0 -4.43725e-05 0.000550627 -0.000429832 0.000263287 0.000363112 0.000233738 -0.108878 -0.0140331 0.122077 0.004 300 0 
101 1 1 -0.0371227 0.0272935 0.0039049 0 0 0 0.000163168 0.000435438 0.000106451 0.000751693 -7.23475e-05 -0.000265915 -0.2005 0.123423 0.031649 0.004 300 0 
246 1 1 -0.0290601 0.0272872 0.00398166 0 0 0 0.000796199 -0.0008804 0.000615231 -0.000712442 0.000315386 -0.000851356 -0.0498297 0.0119108 0.0744519 0.004 300 0 
331 1 1 -0.021226 0.0257787 0.00389399 0 0 0 0.000286708 0.000799538 0.000808698 -0.000223418 0.00102038 0.0003072 -0.156422 0.187201 0.0863483 0.004 300 0 
846 1 1 -0.0134679 0.0274115 0.00397755 0 0 0 0.000291977 0.000726039 0.000530759 -0.000875359 0.00139069 -0.000982037 -0.392185 -0.385527 -0.144447 0.004 300 0 
348 1 1 -0.0033061 0.0260618 0.00393299 0 0 0 0.000373174 0.000399098 -7.71732e-05 -0.00102647 5.06421e-05 -0.000548181 0.0305499 0.0800968 -0.0318372 0.004 300 0 
786 1 1 0.00839598 0.0281401 0.00389329 0 0 0 -0.000355698 0.00112839 -0.00087317 -0.000798413 -0.000145949 -0.000169257 -0.132605 -0.136766 -0.00273564 0.004 300 0 
316 1 1 0.016276 0.0272859 0.00390428 0 0 0 -0.000753405 0.000848813 -0.000190404 -0.000434361 -0.000360941 7.71806e-05 -0.154436 -0.169465 -0.132305 0.004 300 0 
495 1 1 0.0288876 0.0264534 0.00396561 0 0 0 -8.29294e-05 -0.000305831 -5.31383e-05 -0.000172323 -9.81022e-06 6.9968e-05 -0.0227682 0.0196754 -0.00302358 0.004 300 0 
863 1 1 0.0367289 0.0277585 0.00393027 0 0 0 -1.79635e-05 -5.44854e-05 -0.000229948 -0.000162948 0.000248467 -0.000474139 -0.0287585 -0.00921792 0.0607153 0.004 300 0 
511 1 1 -0.00762544 0.0327184 0.00388489 0 0 0 0.000286416 0.000311386 8.14908e-05 -0.00103495 0.000131264 -0.00113254 -0.158903 0.021018 0.0674252 0.004 300 0 
722 1 1 0.00164138 0.0322822 0.00396912 0 0 0 2.55893e-05 0.000614693 -0.000379548 -0.000760827 0.000137751 -0.000610725 0.00779073 0.219624 0.161151 0.004 300 0 
2 1 1 0.02293 0.0316851 0.00396131 0 0 0 -0.000101977 -9.81642e-05 -0.000186942 -0.000147538 0.000254763 7.06501e-06 -0.00331371 -0.00864311 -0.052504 0.004 300 0 
254 1 1 0.0303982 0.0345297 0.00398149 0 0 0 -0.00170134 0.000628335 -0.000218419 0.00262815 0.000953969 0.000164512 -0.017698 -0.672879 -0.61686 0.004 300 0 
257 1 1 -0.0296179 0.0352337 0.00394678 0 0 0 -0.00123535 -0.00102248 0.000408744 0.00162544 0.000810392 0.000260561 0.208031 -0.262863 0.22067 0.004 300 0 
582 1 1 -0.0157562 0.0356335 0.00391621 0 0 0 -0.000192315 0.000558879 -0.000102939 9.29016e-05 -0.000698384 0.00090495 -0.155564 -0.0196463 -0.241716 0.004 300 0 
255 1 1 -0.00266666 0.0389285 0.00391211 0 0 0 -0.000727516 0.000293435 -8.2863e-06 -0.000255322 -0.000957305 -0.00110647 -0.0366063 -0.179551 0.0159896 0.004 300 0 
887 1 1 0.00812693 0.037319 0.00392637 0 0 0 -0.0012226 0.000583762 -0.00016153 -0.000664753 0.00101894 -2.25197e-05 -0.0735603 -0.326844 -0.0856764 0.004 300 0 
719 1 1 0.0157897 0.0351903 0.00398365 0 0 0 -0.000738435 0.000450198 -1.3381e-05 -0.00097232 7.6451e-05 0.000308008 0.123559 0.173445 0.0654558 0.004 300 0 
21 1 1 0.0234343 0.0396246 0.00391133 0 0 0 -0.000275549 0.000125753 -0.000291381 7.83764e-05 -3.48081e-05 3.92983e-05 0.000692995 -0.0211486 0.109892 0.004 300 0 
325 1 1 -0.0222335 0.0403022 0.00393926 0 0 0 2.15679e-05 0.000547878 0.000741561 -0.000891721 -5.30283e-05 -0.00209386 -0.042135 -0.023033 -0.0888082 0.004 300 0 
595 1 1 -0.0149279 0.0435462 0.00398183 0 0 0 0.000271238 0.000332955 -5.65352e-05 0.00012627 -0.000371229 0.000212575 0.0974633 0.0709151 0.124345 0.004 300 0 
568 1 1 0.0162999 0.0430899 0.00392547 0 0 0 -0.000613466 0.000234523 -0.000101447 -0.000492373 -3.80358e-05 0.000423853 -0.0668783 -0.100341 -0.142453 0.004 300 0 
387 1 1 -0.00719481 0.0454822 0.00391068 0 0 0 -0.000292871 5.79476e-05 0.000137599 0.000831188 5.72742e-05 -0.00042792 0.0479952 -0.0195555 -0.149647 0.004 300 0 
852 1 1 0.000766044 0.0460592 0.0039778 0 0 0 -0.000392446 0.000170718 2.89102e-06 -0.000730127 -0.000407757 -0.000522661 -0.0125497 0.0706637 -0.00453842 0.004 300 0 
157 1 1 0.00866375 0.0452485 0.00390096 0 0 0 -0.000654241 0.000724099 -0.000299815 -0.000615658 -3.04571e-05 -0.000283689 -0.139556 -0.0707103 -0.00891839 0.004 300 0 
400 1 1 -0.0247538 -0.0387909 0.0097499 0 0 0 0.000258883 -0.000201111 -0.00056454 3.2481e-05 0.001048 0.00101694 0.0368776 0.128039 0.105603 0.004 300 0 
606 1 1 -0.000647529 -0.0387151 0.00814495 0 0 0 -4.50724e-05 -0.000589385 -0.000356215 -0.000183809 -0.000715145 0.000737348 -0.113941 0.170426 0.239422 0.004 300 0 
724 1 1 -0.0339151 -0.0311573 0.00985158 0 0 0 7.0809e-06 -0.000164111 -0.0006824 3.28378e-05 0.000727827 -1.34692e-05 -0.0799051 0.0268764 0.0590614 0.004 300 0 
183 1 1 0.0251907 -0.0311842 0.00753822 0 0 0 -0.000485196 -0.00117879 -0.000242501 -0.000167611 0.00103079 -0.000806346 -0.101954 -0.258696 -0.0348751 0.004 300 0 
544 1 1 -0.0140147 -0.0252809 0.00875404 0 0 0 0.000354213 -0.000664562 -0.0021814 0.000755363 -0.00057107 -0.000634866 -0.148094 0.295089 0.0542268 0.004 300 0 
29 1 1 -0.00449088 -0.0263795 0.00901113 0 0 0 -0.00174042 -0.000345482 -0.00165203 0.00179691 -0.000510644 -0.000923375 -0.0494938 0.00400623 0.0318402 0.004 300 0 
248 1 1 0.00349448 -0.0278116 0.00762176 0 0 0 -0.000669998 -0.000870115 -0.00114828 0.000520153 -0.00105564 0.00111122 -0.111122 -0.0630955 0.0205013 0.004 300 0 
79 1 1 0.035835 -0.0289427 0.00960709 0 0 0 0.000321917 -0.00104732 0.000662368 -0.000511686 0.000111957 -0.00157381 0.257671 -0.0828594 0.189163 0.004 300 0 
291 1 1 -0.0045512 -0.017413 0.00910955 0 0 0 -0.00123088 0.000363167 -0.00367689 0.00154165 -0.000696418 -0.000105247 0.792274 -0.210496 -0.080318 0.004 300 0 
891 1 1 0.00373041 -0.0155385 0.00634427 0 0 0 -0.000458267 0.00041473 -0.00117022 0.00106101 0.0007142 0.000275709 0.06858 0.289133 0.0744814 0.004 300 0 
870 1 1 0.0139011 -0.0155342 0.00843213 0 0 0 -0.00397871 -0.00580728 -0.00606883 -0.00330901 -0.00196901 -0.00219585 -0.969961 0.220053 0.126449 0.004 300 0 
777 1 1 0.0346487 -0.0191634 0.00797659 0 0 0 0.00137158 0.00203335 -0.000437514 -0.00248675 -0.00109896 0.000113587 0.159253 0.21554 0.75088 0.004 300 0 
837 1 1 -0.0294904 -0.0146574 0.00798447 0 0 0 -0.000271003 0.000150021 -0.000468105 0.000394161 -0.000225451 0.000463696 -0.0723598 0.0199469 0.126481 0.004 300 0 
445 1 1 -0.0181148 -0.0138412 0.00993801 0 0 0 0.000254885 0.00200776 -0.00220063 0.000260333 0.000573442 -0.000654388 -0.0034146 0.527404 0.742642 0.004 300 0 
783 1 1 0.00492078 -0.00862195 0.00994852 0 0 0 -0.00095914 0.000196683 -0.00210231 0.000870509 0.000212757 0.001236 -0.0862577 0.239437 0.331247 0.004 300 0 
615 1 1 -0.0350921 -0.000772326 0.00954833 0 0 0 -0.000216167 0.000948767 -0.000392655 -0.000148708 0.00139863 0.000546606 -0.220963 -0.201249 0.117437 0.004 300 0 
476 1 1 -0.0459536 0.00262946 0.00987803 0 0 0 3.20522e-05 -0.000421524 -0.000486727 0.00113493 0.000933525 -0.000299547 0.070197 0.233691 -0.0410815 0.004 300 0 
16 1 1 -0.0210215 0.00169548 0.00831167 0 0 0 -0.00159358 0.000333454 -0.00100902 -0.00149771 0.000309681 0.00168579 0.043997 0.102479 -0.486426 0.004 300 0 
303 1 1 0.0459428 0.00350501 0.00963517 0 0 0 0.000396827 -0.000306723 -0.000603312 0.000755667 0.000273998 -0.000237812 0.284345 -0.179503 -0.0840585 0.004 300 0 
523 1 1 -0.0389846 0.00803528 0.00933456 0 0 0 0.00175521 0.000162753 -0.000720583 0.00164566 0.00177674 5.7106e-05 -0.078489 0.419026 -0.0299222 0.004 300 0 
704 1 1 -0.0107944 0.00518473 0.00743359 0 0 0 0.000145625 0.000230984 -0.00168869 0.000584726 7.95547e-05 -0.000689365 0.262015 -0.176138 0.330983 0.004 300 0 
454 1 1 0.00100672 0.00714048 0.00933749 0 0 0 0.000837926 0.00136967 -0.000367799 0.00252616 9.04166e-05 -0.0025422 0.0883016 -0.187411 0.20557 0.004 300 0 
31 1 1 0.0102417 0.00545811 0.00831944 0 0 0 -0.000706959 0.00100885 0.000314234 0.00124622 -0.000141529 -0.000723662 0.0489797 0.113361 -0.106616 0.004 300 0 
135 1 1 0.0188999 0.00746199 0.00959157 0 0 0 0.00068174 0.00145412 -0.00115543 0.00116595 -0.00124432 0.00242958 -0.195971 0.538648 0.0748827 0.004 300 0 
712 1 1 0.0281134 0.00743566 0.00998655 0 0 0 0.00141723 -0.000891748 0.000103543 -0.000221257 0.00175229 -0.00153358 -0.322294 -0.246666 -0.539977 0.004 300 0 
210 1 1 0.0394796 0.00813918 0.0099006 0 0 0 0.00130761 0.00109897 -5.88571e-05 -0.00206425 -0.000625968 0.00215424 -0.111975 0.206212 -0.0626534 0.004 300 0 
651 1 1 -0.0437971 0.0143356 0.00825281 0 0 0 -0.000164581 0.000806718 -0.00117335 0.000332788 0.00153611 0.000356896 -0.353432 -0.051181 -0.00983592 0.004 300 0 
621 1 1 0.043721 0.0147708 0.00901328 0 0 0 0.000436469 0.000826476 -0.000796559 -0.000740371 0.00027832 0.00109693 -0.0125961 -0.179239 -0.0538251 0.004 300 0 
726 1 1 -0.0257702 0.0200028 0.00692091 0 0 0 -5.14762e-05 0.000945315 0.0010253 0.0017458 -0.000368183 0.00108485 0.174137 -0.0657445 -0.144266 0.004 300 0 
230 1 1 -0.00847365 0.0245614 0.00973409 0 0 0 0.000646657 0.00145924 -0.000260141 0.00014423 0.00199159 -1.61537e-05 -0.110739 0.0181228 -0.314369 0.004 300 0 
320 1 1 -0.00172201 0.0203621 0.00978221 0 0 0 1.59902e-05 0.000909936 -4.29696e-05 -0.00114648 0.000310904 -0.0017202 0.169166 -0.131853 0.139627 0.004 300 0 
7 1 1 0.0129058 0.0224245 0.0091769 0 0 0 -0.000538795 0.00171259 -0.00077518 -0.00117012 0.000183459 0.000267593 -0.0561831 0.0139633 0.311406 0.004 300 0 
83 1 1 0.0214192 0.0239606 0.00887706 0 0 0 -0.000945839 0.00077285 -0.000579794 4.23699e-05 -0.000213386 0.00104437 0.17851 0.275052 0.0687961 0.004 300 0 
747 1 1 -0.0337062 0.0314082 0.00969337 0 0 0 -0.000564951 0.000252269 0.000785734 0.00230842 -0.000346739 0.000394715 0.261309 -0.517556 -0.0945718 0.004 300 0 
51 1 1 -0.0226031 0.0329666 0.00702296 0 0 0 -0.00067755 0.000758204 0.000494968 0.0018061 0.00138991 0.000961818 -0.136751 0.072863 0.239983 0.004 300 0 
116 1 1 -0.00937668 0.0391143 0.00813796 0 0 0 -0.00129819 0.000126066 -0.000658867 -0.000766586 7.73015e-05 -0.00203184 0.0653581 -0.194109 0.342917 0.004 300 0 
205 1 1 -0.000576162 -0.0460716 0.011026 0 0 0 0.00129479 -0.000211347 0.000564295 -0.000285863 -0.00186645 -0.00185997 -0.0339238 0.761592 -0.360036 0.004 300 0 
836 1 1 0.00737364 -0.0454657 0.0106657 0 0 0 0.00135318 -2.64271e-05 -0.00157724 -0.00162244 -0.0013161 0.00359493 0.887592 0.347648 -0.574572 0.004 300 0 
486 1 1 -0.0157931 -0.0401431 0.0103817 0 0 0 0.000266961 -0.00162067 -0.00123407 -0.00263603 0.00253618 0.00065661 0.410546 0.0352192 0.0459691 0.004 300 0 
311 1 1 -0.00838633 -0.0441363 0.0107015 0 0 0 0.000748014 0.000905094 -0.00163102 -0.0024856 -0.00205328 0.000538863 -0.442054 0.231629 0.357525 0.004 300 0 
447 1 1 0.0180059 -0.0424056 0.0118194 0 0 0 0.00285966 0.00115925 0.000572726 -0.00168023 -0.00187028 -0.000289994 -0.0478992 0.131694 -0.0169027 0.004 300 0 
538 1 1 -0.0295804 -0.0353419 0.0149932 0 0 0 0.000120084 -2.38332e-05 -0.000540313 0.000151133 0.00252354 -7.54855e-05 -0.160066 -0.0399991 -0.0361437 0.004 300 0 
279 1 1 0.0111234 -0.0385155 0.0114045 0 0 0 0.00172845 -0.000861332 -0.000407615 -0.00035357 -0.00189652 0.00128891 -0.356412 -0.230639 0.593033 0.004 300 0 
110 1 1 0.025001 -0.03869 0.011716 0 0 0 0.00238976 0.00178245 0.000859855 0.000524304 -0.00167505 -0.000729257 0.131393 -0.398649 0.222698 0.004 300 0 
188 1 1 -0.0178917 -0.0320973 0.0101725 0 0 0 0.000375014 -0.00102308 -0.00141068 0.00142347 -0.000193138 0.000189512 -0.126732 0.126406 -0.129149 0.004 300 0 
810 1 1 -0.010272 -0.0344372 0.0101993 0 0 0 5.66673e-05 -0.000717631 -0.000776725 -0.000738658 -0.00202863 0.000698541 -0.101073 0.141517 0.0848729 0.004 300 0 
412 1 1 -0.00318554 -0.0328814 0.0133657 0 0 0 -0.000327756 -0.000968313 -0.00155942 0.00114269 -0.000914964 -0.00136568 0.265804 0.110698 0.209361 0.004 300 0 
545 1 1 0.00450484 -0.034265 0.0122075 0 0 0 0.000386014 -0.00161436 -0.0020674 0.00159623 -0.00238851 -0.000401526 -0.0854714 -0.0402556 -0.391365 0.004 300 0 
100 1 1 0.0114933 -0.0305569 0.0116979 0 0 0 0.000435565 -0.00160058 -0.000443959 0.000991846 -0.00207671 0.000627395 0.09714 -0.209883 0.406034 0.004 300 0 
556 1 1 0.0183261 -0.0344932 0.0109208 0 0 0 0.00184394 0.000529572 -0.000510363 0.00210374 -0.00098067 -0.000349459 -0.426064 0.301017 0.207113 0.004 300 0 
32 1 1 0.0310971 -0.0339796 0.0134249 0 0 0 0.00182789 0.00083894 0.00562511 -0.000317861 0.000469866 -0.000795473 1.44362 0.0310954 -0.141993 0.004 300 0 
5 1 1 -0.0386764 -0.0250039 0.011445 0 0 0 0.000852066 -0.000302279 -0.000366158 -0.000350493 0.000110031 0.00152815 0.0495921 0.174901 -0.226965 0.004 300 0 
415 1 1 -0.0254007 -0.0294111 0.0104013 0 0 0 0.000795931 0.000835845 1.36438e-05 0.00173963 -8.8288e-05 -0.00218927 -0.318474 0.25945 0.0646935 0.004 300 0 
446 1 1 -0.00966621 -0.0280484 0.0148286 0 0 0 -0.000700289 -0.00211388 -0.00155927 0.00142111 -0.00113676 -0.000869418 0.381158 0.308709 0.302976 0.004 300 0 
814 1 1 0.0190471 -0.0263014 0.0103806 0 0 0 0.00102072 -0.00217233 -0.000296099 -0.000121233 0.000311252 0.000582031 -0.0488419 0.368371 0.370591 0.004 300 0 
24 1 1 0.0289533 -0.0255263 0.0115589 0 0 0 0.000362293 -0.00241913 0.000717505 -0.00173163 0.00199865 -0.000395586 0.455726 0.126501 -0.138099 0.004 300 0 
266 1 1 -0.0293247 -0.0224481 0.0104366 0 0 0 -0.000396892 -0.000405121 -0.000240495 -0.00103599 -0.000424393 -0.000528126 0.162103 -0.241499 -0.207517 0.004 300 0 
487 1 1 -0.0208205 -0.0214282 0.0102375 0 0 0 0.00126429 -0.00111566 -0.00252907 0.00054774 0.00371709 0.00054119 0.0333056 -0.293931 -0.0817629 0.004 300 0 
655 1 1 0.00196587 -0.0211455 0.0116389 0 0 0 -0.00262943 -0.000662883 -0.00368173 0.00222655 -0.000239507 0.00052347 -0.0508673 -0.328645 -0.0365013 0.004 300 0 
243 1 1 0.0113235 -0.0226674 0.0108659 0 0 0 -0.00256114 -0.00305666 -0.00057405 -0.00224121 -0.000982561 0.00105845 -0.149406 0.460864 0.146156 0.004 300 0 
528 1 1 0.0400484 -0.0228134 0.0124027 0 0 0 -0.00027245 0.000113567 0.000479158 3.05991e-05 -0.00104623 -0.00275817 -0.255145 0.125751 -0.541128 0.004 300 0 
356 1 1 -0.0361853 -0.0174944 0.0110452 0 0 0 0.000724836 -0.000942212 -0.00115701 0.000537013 -0.000802808 0.00169111 0.0224346 -0.229661 0.33339 0.004 300 0 
112 1 1 -0.0258746 -0.0156434 0.014919 0 0 0 -0.00271535 0.000564364 0.00084164 0.00122209 0.00118188 0.00106882 0.314035 -0.710844 0.411389 0.004 300 0 
739 1 1 -0.0118939 -0.0183209 0.0119191 0 0 0 -0.000417381 0.000914218 -0.00622225 0.000487844 -0.00257453 -0.00143015 1.03939 0.0753385 -0.897022 0.004 300 0 
30 1 1 0.00801629 -0.0159907 0.0136731 0 0 0 -0.00239429 -0.00172722 -0.00403986 0.0009523 0.000546444 0.00113041 -1.31744 0.418307 0.428887 0.004 300 0 
309 1 1 0.0236269 -0.019803 0.0103684 0 0 0 0.000888591 -0.00227958 -0.00112094 -0.00285888 0.00369202 0.0016278 -0.11379 -0.388951 0.0726865 0.004 300 0 