ITEM: TIMESTEP
24800
ITEM: NUMBER OF ATOMS
891
ITEM: BOX BOUNDS mm mm mm
-0.05 0.05
-0.05 0.05
0 0.15
ITEM: ATOMS id type type x y z ix iy iz vx vy vz fx fy fz omegax omegay omegaz radius f_Temp[0] f_heatFlux[0] 
199 1 1 -0.00444378 -0.0458158 0.00397437 0 0 0 4.86432e-06 1.02707e-06 -8.28307e-07 3.98221e-06 -3.35882e-06 -4.9216e-06 -0.000459613 0.000453592 -0.00121391 0.004 425.141 8.78131 
873 1 1 -0.0201484 -0.0414789 0.00390161 0 0 0 2.26123e-06 -6.24816e-07 2.71785e-06 2.40168e-08 -3.13758e-06 -1.41971e-06 0.000400032 -9.13566e-05 -0.000315169 0.004 321.603 7.00903 
485 1 1 -0.0126796 -0.0442533 0.00397266 0 0 0 3.66618e-06 -3.5169e-06 1.24415e-06 2.19292e-06 -5.69461e-06 -2.83464e-06 0.000918712 0.000616357 -0.00103622 0.004 338.451 10.1636 
850 1 1 0.00335642 -0.0441759 0.00394118 0 0 0 4.71722e-06 -1.0587e-07 1.02247e-06 3.2289e-06 -4.82988e-06 -5.43046e-06 3.02042e-05 0.000452204 0.000636687 0.004 570.73 -8.82478 
186 1 1 0.0114401 -0.0445988 0.00392829 0 0 0 2.13677e-06 7.14048e-07 1.54145e-06 2.5359e-06 -2.32808e-06 -1.56791e-06 0.000166711 0.00078119 -0.000261799 0.004 727.453 -12.5978 
560 1 1 0.0189689 -0.0420006 0.00394677 0 0 0 1.11573e-06 5.74051e-07 1.45673e-06 1.73146e-06 -2.32037e-06 -2.41379e-06 0.000548613 -0.000531548 2.96437e-05 0.004 762.317 -9.57837 
102 1 1 -0.0147501 -0.0357331 0.00386315 0 0 0 4.80014e-06 -2.48437e-06 4.81894e-06 1.71669e-06 -8.04272e-06 -5.2445e-06 0.000586499 0.000440271 -0.000342316 0.004 348.987 9.38005 
88 1 1 -0.00730762 -0.0383837 0.0039273 0 0 0 5.4822e-06 -1.90171e-06 2.59555e-06 1.62936e-06 -7.38501e-06 -3.97276e-06 0.000714814 0.00051523 0.000905119 0.004 404.044 10.2013 
776 1 1 0.00520384 -0.0354367 0.00395028 0 0 0 5.11809e-06 1.61903e-07 3.34992e-06 8.04847e-07 -9.11538e-06 -6.78326e-06 0.000294811 0.000216266 0.000650579 0.004 630.231 -3.95384 
410 1 1 0.0130236 -0.0368131 0.00392575 0 0 0 4.06032e-06 1.48541e-06 3.88177e-06 2.18106e-06 -5.68221e-06 -4.06646e-06 5.11955e-05 0.000624933 -0.000329497 0.004 724.501 -10.2663 
282 1 1 0.025876 -0.0381319 0.00388528 0 0 0 3.13833e-06 4.06307e-06 1.77266e-06 4.84389e-08 -3.64871e-06 -1.28132e-06 -0.000781197 0.00114758 -0.000234049 0.004 788.189 -4.74232 
682 1 1 -0.0302016 -0.0348779 0.00393466 0 0 0 1.64581e-06 5.75728e-08 1.24842e-06 6.29161e-07 -2.62995e-06 -1.99805e-06 0.000121356 -0.000129496 -0.000120032 0.004 304.728 2.25225 
251 1 1 -0.0224189 -0.0338476 0.00392334 0 0 0 4.50406e-06 -2.71056e-07 4.08067e-06 1.22858e-06 -5.84243e-06 -3.51238e-06 5.20471e-05 1.77666e-05 -0.000402824 0.004 317.334 5.70839 
770 1 1 -0.00204755 -0.0321407 0.00393968 0 0 0 5.59954e-06 -3.73954e-06 3.81983e-06 1.73095e-06 -9.17762e-06 -5.20174e-06 0.00075159 -0.000241284 0.000724596 0.004 529.359 4.73665 
883 1 1 0.0181659 -0.0307535 0.00390027 0 0 0 4.01154e-06 5.80064e-06 3.54873e-06 1.81323e-06 -7.25012e-06 -3.89534e-06 -0.0010231 0.000454764 0.00120576 0.004 763.829 -8.00112 
838 1 1 0.0320336 -0.033109 0.00396075 0 0 0 3.34127e-06 3.64754e-06 -2.81575e-06 1.01288e-06 -3.39812e-06 -7.76202e-07 -0.000803007 0.000426814 -0.000716721 0.004 796.242 -2.02031 
617 1 1 -0.0372521 -0.0271215 0.00391646 0 0 0 1.71822e-06 2.84207e-07 1.83755e-06 2.09395e-06 -1.78387e-06 -7.36377e-07 4.58771e-06 8.28279e-06 -0.000160596 0.004 300.646 0.474348 
824 1 1 -0.0292999 -0.0270298 0.00392985 0 0 0 3.18441e-06 -1.2084e-06 2.81124e-06 4.69481e-06 -4.83313e-06 -3.76376e-06 0.00040333 0.00032964 -0.000296305 0.004 302.467 1.39977 
571 1 1 -0.0202615 -0.0262214 0.00393288 0 0 0 8.60722e-06 -1.48046e-06 3.83699e-06 4.5345e-06 -9.14123e-06 -5.43284e-06 0.000265944 0.00142466 9.87477e-05 0.004 314.937 5.34044 
861 1 1 -0.00959296 -0.0297304 0.00389703 0 0 0 8.78295e-06 -4.69986e-06 6.19726e-06 2.05389e-06 -8.69848e-06 -6.22642e-06 0.000943 0.00146761 -0.000997905 0.004 395.482 11.8644 
434 1 1 0.0103455 -0.0293807 0.00393746 0 0 0 5.42304e-06 1.37806e-06 6.50262e-06 1.59269e-06 -7.68018e-06 -4.62355e-06 0.000155517 0.000499897 -0.000430293 0.004 703.751 -9.38567 
103 1 1 0.0311547 -0.0252347 0.00394366 0 0 0 7.29969e-06 5.03371e-06 -2.10157e-06 -8.58651e-07 -5.61547e-06 -1.76641e-06 5.23378e-05 0.000582444 -0.000849246 0.004 796.806 -1.64822 
769 1 1 -0.041344 -0.0202818 0.00398229 0 0 0 1.51311e-06 -1.10676e-07 1.20217e-06 4.35097e-06 -4.05678e-07 2.17665e-06 0.000112586 -0.000164789 -0.000118653 0.004 300.207 0.176111 
94 1 1 -0.0333714 -0.0202163 0.0039437 0 0 0 3.85156e-06 -3.19832e-07 3.26983e-06 7.75531e-06 -2.50592e-06 -1.16606e-06 -4.24897e-05 -0.000100623 -0.000147377 0.004 301.211 0.753621 
40 1 1 -0.0254011 -0.0201463 0.00391763 0 0 0 6.2339e-06 -3.03963e-06 4.69435e-06 9.60663e-06 -6.23738e-06 -4.07154e-06 5.31647e-05 0.000480251 -0.00024471 0.004 305.532 2.51147 
19 1 1 -0.00865074 -0.0218804 0.00393969 0 0 0 1.28797e-05 -6.09995e-06 7.23054e-06 2.42333e-06 -8.0022e-06 -4.56755e-06 0.000311074 0.00221014 5.42953e-05 0.004 394.705 12.8129 
442 1 1 -0.000436988 -0.0218499 0.00393588 0 0 0 1.13676e-05 -7.42276e-06 6.52661e-06 2.26773e-06 -7.01596e-06 -6.1746e-06 0.00163399 0.00229099 0.000502023 0.004 533.464 7.70299 
259 1 1 0.0075319 -0.0220001 0.00392514 0 0 0 9.3923e-06 -3.22874e-07 6.16982e-06 2.88093e-06 -7.81913e-06 -3.80203e-06 -0.00051245 0.00106696 0.000641774 0.004 677.616 -7.37475 
512 1 1 0.0153882 -0.0232356 0.00397837 0 0 0 6.54575e-06 4.86733e-06 5.35576e-06 1.46263e-06 -8.46921e-06 -4.1479e-06 -0.00104026 -0.000108118 0.000674015 0.004 753.05 -7.92826 
470 1 1 0.0232616 -0.0243589 0.0039082 0 0 0 6.73155e-06 6.71795e-06 1.40536e-06 2.49741e-07 -9.23407e-06 -4.24666e-06 -0.00097344 0.00136058 -0.000153022 0.004 787.273 -4.35608 
451 1 1 0.0390293 -0.0244875 0.00392049 0 0 0 4.19706e-06 2.28342e-06 -1.37152e-07 3.9721e-08 -7.15201e-07 -1.32737e-07 -0.000520656 0.000475204 -0.000277366 0.004 799.179 -0.559941 
531 1 1 -0.0164596 -0.0192004 0.00396127 0 0 0 8.01274e-06 -3.16811e-06 1.50072e-06 8.63723e-06 -9.76223e-06 -2.41029e-06 0.000816385 0.00178853 -0.000831869 0.004 320.172 6.09148 
229 1 1 0.0202059 -0.0169136 0.0038688 0 0 0 8.05863e-06 3.80302e-06 2.39546e-06 2.88497e-06 -7.63916e-06 -7.58628e-06 -0.000707071 0.00110689 -0.000544229 0.004 779.631 -5.91734 
734 1 1 0.0280521 -0.017942 0.00394401 0 0 0 8.3759e-06 8.28023e-06 -1.85861e-06 -2.49681e-06 -1.15734e-05 -3.01928e-06 -0.00146419 0.00159604 0.00187686 0.004 795.362 -2.05304 
635 1 1 0.0425981 -0.0174495 0.00392192 0 0 0 2.60638e-06 8.96935e-07 -2.16002e-06 1.32416e-06 -9.00568e-07 -8.14503e-08 -0.00023148 0.000536811 0.000224676 0.004 799.855 -0.122795 
87 1 1 -0.0448224 -0.0104639 0.0039142 0 0 0 1.47421e-06 -8.96128e-07 1.11855e-06 2.15388e-06 -1.63119e-07 -2.43487e-07 1.59751e-05 0.000183155 0.000378419 0.004 300.045 0.0444573 
406 1 1 -0.0373951 -0.013391 0.00396016 0 0 0 3.55219e-06 -1.14834e-06 8.66239e-07 8.97246e-06 4.00357e-07 -1.31379e-06 -7.25641e-05 0.000722649 -0.000128354 0.004 300.244 0.19531 
224 1 1 -0.0230581 -0.0126019 0.00387962 0 0 0 9.37158e-06 -7.11567e-06 3.87394e-06 1.04864e-05 -4.42715e-06 -4.18666e-06 0.00134441 0.00208141 -0.000376406 0.004 312.109 4.07138 
751 1 1 -0.0102997 -0.0141545 0.00396947 0 0 0 8.47011e-06 -6.71961e-06 2.33005e-06 5.98352e-06 -5.2342e-06 -4.62262e-06 -7.10295e-05 -0.000649359 0.000323454 0.004 374.762 10.1859 
622 1 1 -0.00273392 -0.0117409 0.00388527 0 0 0 1.11121e-05 -8.07234e-06 4.86207e-06 3.83973e-06 -6.77353e-06 -6.54992e-06 0.000927314 0.00187298 -0.000462268 0.004 485.384 4.03934 
128 1 1 0.00951063 -0.010685 0.00388463 0 0 0 6.36522e-06 -5.60225e-06 5.06697e-06 2.74695e-06 -9.43673e-06 -8.26564e-06 0.000693526 0.000556384 0.000894912 0.004 716.223 -9.82291 
68 1 1 0.0262808 -0.0102109 0.00395442 0 0 0 7.52936e-06 5.04132e-06 -5.64725e-07 1.64937e-07 -7.37349e-06 -4.44669e-06 -0.000151518 0.00135427 -0.00183215 0.004 796.729 -1.68834 
791 1 1 0.0340945 -0.0118531 0.00392802 0 0 0 7.76471e-06 1.11939e-05 -8.45924e-07 -5.26939e-06 -1.29576e-05 1.33439e-06 -0.00245385 0.00144537 0.00410851 0.004 799.482 -0.369232 
354 1 1 -0.0380749 -0.00550396 0.00392041 0 0 0 9.0915e-07 -2.47004e-06 -1.72375e-07 9.09936e-06 5.99649e-07 -4.9283e-07 0.000107298 -0.000193213 0.000268731 0.004 300.24 0.187651 
725 1 1 -0.0304901 -0.0080053 0.00392521 0 0 0 5.48335e-06 -1.66968e-06 1.05495e-06 1.43428e-05 -2.15205e-06 -3.42559e-06 -0.00061308 0.00110237 0.00110088 0.004 301.093 0.688288 
353 1 1 -0.0161288 -0.00879807 0.00391145 0 0 0 6.88799e-06 -7.42041e-06 1.21653e-07 7.18507e-06 -3.80305e-06 -5.98766e-06 0.00129346 0.000558718 6.98815e-05 0.004 337.734 7.91616 
391 1 1 -0.00857664 -0.00639745 0.00391359 0 0 0 7.04533e-06 -7.3304e-06 5.55117e-07 4.35709e-06 -2.05507e-06 -4.35142e-06 6.15469e-05 0.000328926 0.000145735 0.004 400.211 10.2969 
683 1 1 0.0173533 -0.00945625 0.0039099 0 0 0 6.79207e-06 1.29237e-06 2.36966e-06 2.6927e-06 -9.3246e-06 -4.69494e-06 -0.000482878 0.000853487 0.000577922 0.004 773.469 -6.74995 
690 1 1 0.0385537 -0.0052014 0.00390024 0 0 0 4.30255e-06 8.71337e-06 -3.43913e-06 1.7857e-06 -1.10934e-05 -2.6184e-06 -0.00248474 0.000453739 -0.00132983 0.004 799.823 -0.137976 
10 1 1 0.0449635 -0.00990887 0.00397401 0 0 0 -5.22639e-07 4.12678e-07 2.04311e-06 3.24814e-06 -1.94251e-07 -5.51211e-06 0.00140868 -0.000518519 1.30616e-05 0.004 799.959 -0.0402023 
402 1 1 -0.046017 -0.00264172 0.00392181 0 0 0 -5.18956e-08 -1.16074e-06 6.90692e-07 3.99887e-06 -2.05189e-08 5.16267e-07 0.000105211 -0.000121319 -0.000235467 0.004 300.079 0.0685661 
761 1 1 -0.0294745 -0.000168327 0.00392562 0 0 0 2.37526e-06 -4.20316e-06 -2.1566e-06 9.84958e-06 -9.22392e-08 -6.32787e-07 0.000334285 0.000285664 -0.000159081 0.004 302.974 1.49626 
293 1 1 -0.0229324 -0.00466871 0.0039595 0 0 0 4.93352e-06 -6.44569e-06 1.01173e-06 9.19029e-06 -7.42048e-07 -3.9178e-06 -0.000430453 0.000239189 0.000315461 0.004 310.303 3.86468 
384 1 1 -0.0147921 -0.000818854 0.0039815 0 0 0 -0.000883549 0.000686052 -4.94991e-13 5.97697e-17 -4.67708e-17 4.65283e-12 -0.171911 -0.221399 0.233621 0.004 300 0 
378 1 1 0.00130606 -0.00490403 0.00392908 0 0 0 9.10705e-06 -3.76013e-06 4.32735e-06 1.57906e-06 -5.15734e-06 -6.52879e-06 -0.000271119 0.000846531 0.00156706 0.004 570.887 -6.03574 
390 1 1 0.0103706 -0.00276526 0.00396888 0 0 0 3.95037e-06 -5.40822e-06 2.11479e-06 1.92527e-06 -9.10644e-06 -3.69733e-06 -0.000802442 -0.000543425 -0.000190642 0.004 746.992 -11.3783 
411 1 1 0.0223603 -0.00329283 0.00397628 0 0 0 2.93766e-06 4.05247e-06 -4.58637e-07 3.43697e-06 -7.31019e-06 -4.5662e-06 -0.000349598 0.000401066 0.00179629 0.004 792.973 -2.97232 
342 1 1 0.0307348 -0.00361663 0.00397531 0 0 0 6.14851e-06 2.22468e-06 9.54452e-09 -3.28953e-06 -3.9245e-06 -3.87478e-06 0.000587785 0.00106329 0.00213955 0.004 799.432 -0.40083 
262 1 1 0.0460221 -0.00206505 0.00395834 0 0 0 5.96784e-07 2.82787e-06 9.03567e-07 2.17428e-06 -2.50219e-06 -4.38264e-06 -0.00152861 0.000272844 -0.000448865 0.004 799.963 -0.0368581 
261 1 1 -0.0398215 0.00224601 0.00393474 0 0 0 6.34798e-07 -2.56823e-06 -3.98606e-07 6.88876e-06 6.72445e-07 1.66376e-06 5.38403e-05 0.000386614 -0.00016403 0.004 300.377 0.257325 
666 1 1 -0.00454679 0.000451459 0.00395605 0 0 0 6.14435e-06 -8.23873e-06 -9.51191e-07 6.66616e-06 -4.32657e-06 -3.80707e-06 6.798e-05 0.000115927 1.64788e-05 0.004 458.364 8.07913 
815 1 1 0.00434364 0.00243564 0.00392713 0 0 0 1.20099e-05 -2.84948e-06 -5.10563e-06 -5.46357e-07 -6.67189e-06 -4.38759e-06 -0.000693037 0.00226655 -0.00218752 0.004 653.715 -11.69 
306 1 1 0.01637 0.00247671 0.00395812 0 0 0 1.51577e-06 -1.19716e-06 6.49973e-07 5.1516e-06 -7.89754e-06 -5.1653e-06 0.000627773 0.000932046 0.00224751 0.004 783.709 -5.82625 
178 1 1 0.0241041 0.00444179 0.00386117 0 0 0 -9.14646e-07 3.07975e-06 -2.22898e-06 6.50315e-06 -7.14131e-06 -5.36577e-06 -0.000339557 -0.000299454 -0.0010287 0.004 793.848 -2.77282 
862 1 1 0.0320656 0.0042337 0.00393099 0 0 0 -5.89623e-07 1.36528e-06 -4.26584e-07 4.30654e-06 -3.95857e-06 -5.45384e-06 -0.000496313 -0.00039982 3.87492e-05 0.004 798.835 -0.724303 
661 1 1 0.0398756 0.00291471 0.00394682 0 0 0 2.00966e-06 3.10403e-06 -3.84927e-07 1.65078e-06 -3.60016e-06 -4.84785e-06 -0.000600587 0.000658699 0.000138099 0.004 799.806 -0.154211 
677 1 1 -0.0453782 0.0078854 0.0039364 0 0 0 1.57738e-07 -1.07107e-06 -9.77629e-08 2.87822e-06 2.12164e-07 1.79539e-06 -9.94987e-05 7.95748e-08 -3.53812e-05 0.004 300.075 0.0658616 
12 1 1 -0.0333161 0.00671961 0.00393694 0 0 0 1.16745e-06 -4.29507e-06 -1.31229e-06 7.18896e-06 1.48247e-06 2.16345e-06 0.000529443 -0.000210212 -9.78882e-05 0.004 301.752 0.935128 
420 1 1 -0.0254 0.00664839 0.00392685 0 0 0 4.40959e-06 -6.1307e-06 -2.84688e-06 7.76029e-06 1.65792e-06 3.69172e-07 0.000862288 0.00108111 -0.000163116 0.004 308.037 3.02293 
654 1 1 -0.0175135 0.00720949 0.00387212 0 0 0 6.48772e-06 -9.152e-06 -7.08836e-06 8.37958e-06 1.28473e-07 -1.79917e-06 0.00158121 0.00101578 -0.000455207 0.004 328.515 6.92034 
145 1 1 -0.00454411 0.0083654 0.00386312 0 0 0 9.762e-06 -8.48068e-06 -5.51369e-06 6.65186e-06 -2.27427e-06 -3.10546e-06 0.00130509 0.00160448 -0.000640848 0.004 452.397 8.97883 
624 1 1 0.0451449 0.00890654 0.00390658 0 0 0 2.6362e-06 4.12504e-06 -2.60425e-06 4.47226e-07 -3.43526e-06 -1.76711e-06 -0.000686021 0.000515932 0.000628978 0.004 799.93 -0.0636091 
613 1 1 -0.0372991 0.0135339 0.00384342 0 0 0 4.47168e-07 -3.12594e-06 -9.07163e-07 5.21722e-06 1.98081e-06 2.8363e-06 0.000387516 1.00866e-05 -0.000217779 0.004 300.513 0.34822 
265 1 1 -0.0293062 0.0135429 0.0039637 0 0 0 1.63475e-06 -4.89581e-06 -2.80891e-07 6.42763e-06 2.09827e-06 1.90857e-06 -0.000137031 -0.00021311 -7.04669e-05 0.004 302.992 1.54829 
273 1 1 -0.0213695 0.0141274 0.00392937 0 0 0 4.62218e-06 -6.26596e-06 -1.32958e-06 6.50922e-06 1.95854e-06 9.3695e-07 0.000960007 0.000919309 0.000740279 0.004 310.342 4.00012 
492 1 1 -0.01145 0.0123713 0.00398078 0 0 0 6.37674e-06 -7.9838e-06 -3.87845e-06 7.49362e-06 -2.94278e-06 -5.16767e-07 0.000845059 0.000533541 0.000830366 0.004 356.5 11.7684 
234 1 1 0.00585281 0.010393 0.00392892 0 0 0 9.16046e-06 -2.16523e-06 -4.8206e-06 3.94713e-06 -6.72912e-06 -4.08079e-06 0.000604512 0.000958374 -0.00012338 0.004 630.911 -7.32371 
160 1 1 0.0142842 0.0106357 0.0039096 0 0 0 5.89365e-06 1.31769e-06 -1.72009e-06 3.2531e-06 -8.23476e-06 -5.53867e-06 -0.000489687 0.000994338 0.000296437 0.004 751.016 -9.43222 
484 1 1 0.0220892 0.0120739 0.00390121 0 0 0 3.04827e-06 1.87901e-06 -1.40866e-06 2.56456e-06 -6.35651e-06 -2.87324e-06 0.000199492 0.000214804 0.000119864 0.004 786.784 -4.39667 
743 1 1 0.0300184 0.0126216 0.00398128 0 0 0 1.6828e-06 2.82585e-06 -2.49475e-07 2.77275e-06 -8.08247e-06 -2.74424e-06 -0.000553324 2.04648e-08 0.000171042 0.004 796.588 -1.69213 
514 1 1 0.0379536 0.0130186 0.00386907 0 0 0 9.54088e-07 3.03196e-06 -1.41548e-06 3.45932e-06 -3.0443e-06 -4.14195e-06 -0.000554901 0.000250472 -0.000102669 0.004 799.345 -0.430309 
530 1 1 -0.0159002 0.0198648 0.00392795 0 0 0 3.329e-06 -5.06836e-06 -3.26706e-06 5.50148e-06 1.00622e-06 -1.82192e-07 0.000819096 0.00100597 -0.000208775 0.004 324.146 7.3001 
227 1 1 -0.00736506 0.0192084 0.00396594 0 0 0 4.57262e-06 -5.64675e-06 -3.28809e-06 5.81348e-06 -1.27233e-06 -3.4339e-07 0.000674738 0.000254329 -0.000174929 0.004 402.61 13.135 
392 1 1 -0.00049866 0.0151514 0.00394446 0 0 0 7.68839e-06 -5.05354e-06 -3.58269e-06 3.71634e-06 -3.01276e-06 -1.9445e-06 0.000657346 0.00058847 0.00132045 0.004 510.371 5.76683 
493 1 1 0.00985837 0.0172532 0.00394647 0 0 0 4.78072e-06 -5.05515e-08 -2.04613e-06 3.7575e-06 -5.81462e-06 -1.28344e-06 3.17668e-05 0.000105085 0.000501401 0.004 692.093 -9.77182 
34 1 1 0.0176356 0.0187853 0.003941 0 0 0 3.38207e-06 1.8116e-06 -4.12012e-07 2.94537e-06 -6.31541e-06 -1.53722e-06 -0.000139449 0.000408985 8.91518e-05 0.004 759.676 -8.38699 
206 1 1 0.0255397 0.0192353 0.00396993 0 0 0 1.94257e-06 1.73908e-06 -5.05443e-07 2.19004e-06 -5.01119e-06 -9.39976e-07 -0.000102466 -1.24585e-05 -0.000166568 0.004 789.404 -3.72761 
104 1 1 0.0334175 0.0199346 0.00389651 0 0 0 9.63539e-07 1.49026e-06 9.89204e-08 1.78074e-06 -1.91051e-06 -2.85305e-06 -0.000268249 7.55285e-05 0.000182037 0.004 797.517 -1.27905 
809 1 1 -0.0412059 0.0204949 0.00395496 0 0 0 3.92514e-07 -9.34257e-07 1.01787e-07 1.98187e-06 7.77657e-07 1.22036e-06 -6.2445e-05 0.000153789 0.0001023 0.004 300.12 0.108209 
773 1 1 -0.0331523 0.0204531 0.00393519 0 0 0 -4.59022e-07 -2.8776e-06 -3.3573e-06 5.11442e-06 1.56416e-06 3.80856e-06 0.000245106 -0.000163485 -3.89364e-05 0.004 301.208 0.77359 
792 1 1 0.00347675 0.0219736 0.00392105 0 0 0 3.30973e-06 -1.51803e-06 -7.97019e-07 4.54284e-06 -4.05445e-06 2.57264e-07 0.000480574 0.000252257 3.57019e-05 0.004 599.124 -3.57223 
718 1 1 0.0413199 0.0203659 0.00392989 0 0 0 5.8297e-07 1.69157e-06 1.22754e-07 1.12464e-06 -1.12448e-06 -2.02342e-06 -0.000356562 7.21405e-05 1.75987e-05 0.004 799.459 -0.377582 
101 1 1 -0.0371146 0.0272995 0.003904 0 0 0 -3.02855e-07 -9.24574e-07 -8.30267e-07 3.23587e-06 -1.32256e-07 2.33775e-06 0.000160438 2.32834e-05 -8.95818e-05 0.004 300.536 0.4017 
246 1 1 -0.0290567 0.0272807 0.00398269 0 0 0 -1.80367e-07 -3.2001e-06 -1.21107e-06 1.38424e-06 6.3075e-07 2.72386e-06 0.000329535 -5.75648e-05 6.31769e-05 0.004 301.933 1.05281 
331 1 1 -0.0212281 0.0257799 0.00390015 0 0 0 2.04107e-06 -4.56707e-06 -1.32384e-06 4.37273e-06 1.72832e-06 5.54253e-06 0.000696603 -0.000118152 6.07737e-05 0.004 311.982 4.12628 
846 1 1 -0.0134708 0.0274168 0.00397478 0 0 0 2.1596e-06 -3.68789e-06 -1.00726e-07 5.23476e-06 -9.0169e-07 1.18354e-06 0.000627814 0.000485218 0.000435107 0.004 345.463 8.91525 
348 1 1 -0.00329919 0.0260612 0.00393373 0 0 0 2.38124e-06 -2.27548e-06 -1.51618e-06 4.62913e-06 -1.68193e-06 7.83805e-07 0.000282151 -0.000129698 0.000580978 0.004 484.61 6.46254 
786 1 1 0.00840351 0.0281551 0.00389683 0 0 0 2.02e-06 2.03354e-07 8.0895e-07 3.75347e-06 -3.14726e-06 1.03679e-06 -2.64701e-05 0.000234475 0.000418594 0.004 675.091 -9.90639 
316 1 1 0.0162833 0.0272928 0.00390629 0 0 0 1.55869e-06 1.14454e-06 1.71155e-06 2.04147e-06 -3.32611e-06 5.1578e-08 -0.000285131 -1.10523e-05 0.000102462 0.004 758.542 -8.46399 
495 1 1 0.0288861 0.0264618 0.00396716 0 0 0 4.44023e-07 4.07713e-07 1.41738e-06 8.1497e-07 -2.08173e-06 -2.57138e-08 0.000399666 0.000118766 0.000128425 0.004 795.978 -2.04023 
863 1 1 0.0367263 0.0277633 0.00392936 0 0 0 1.16081e-08 4.38855e-07 6.51668e-07 6.57859e-07 -9.48158e-07 -6.92273e-07 -0.000109065 4.9093e-05 7.02885e-06 0.004 799.19 -0.56519 
511 1 1 -0.00761837 0.0327132 0.00388551 0 0 0 6.31605e-07 -1.6168e-06 -5.54012e-07 4.07829e-06 -2.53314e-06 2.20381e-06 0.000204946 0.000286127 8.80844e-05 0.004 433.051 10.6058 
722 1 1 0.00164031 0.0322875 0.00396634 0 0 0 8.32557e-07 -3.62263e-07 4.40331e-07 3.4631e-06 -2.45185e-06 1.65823e-06 5.86059e-05 9.18739e-05 -7.16232e-05 0.004 580.243 -4.96818 
2 1 1 0.0229311 0.031696 0.00396243 0 0 0 5.62384e-07 6.63812e-07 2.15209e-06 8.82249e-07 -8.72316e-07 1.64881e-06 -0.000278023 0.000144499 -9.64686e-05 0.004 787.106 -4.92601 
254 1 1 0.0304982 0.0344244 0.0039815 0 0 0 -0.000818632 0.000870518 4.13303e-13 -4.27917e-17 4.56313e-17 1.02167e-12 -0.218134 -0.205132 -0.0703935 0.004 800 0 
257 1 1 -0.0296322 0.0352231 0.00395612 0 0 0 -7.28462e-07 -2.07578e-06 -6.36718e-07 5.30587e-07 -8.73793e-07 3.4726e-06 0.000273027 -0.000156926 -0.000331133 0.004 301.585 0.998745 
582 1 1 -0.0157655 0.0356206 0.00393202 0 0 0 -6.73459e-07 6.41696e-07 -1.3078e-06 -2.17043e-07 -2.399e-06 4.2627e-06 -0.000100528 -0.000211506 0.000414897 0.004 314.135 5.13663 
255 1 1 -0.00267126 0.038932 0.00391145 0 0 0 -3.75559e-07 1.30587e-08 -3.29323e-08 6.7182e-07 -2.10455e-06 2.92333e-06 -0.000124125 -0.000207406 0.000234374 0.004 496.863 4.47892 
887 1 1 0.00812083 0.0373183 0.00392888 0 0 0 2.92674e-07 3.3148e-07 1.96084e-07 1.96606e-06 -2.02347e-06 1.05943e-06 -4.29425e-05 0.0001047 5.35644e-05 0.004 722.406 -12.7953 
719 1 1 0.0157853 0.0351951 0.00398363 0 0 0 3.02598e-07 5.91628e-07 7.80682e-07 9.91565e-07 -1.39915e-06 9.65602e-07 -4.86574e-05 -0.000173491 0.000133949 0.004 770.672 -8.6969 
21 1 1 0.0234243 0.0396338 0.00391497 0 0 0 6.32818e-08 -4.37712e-07 1.04756e-06 6.86003e-07 -8.39898e-07 3.35109e-08 8.38757e-05 -3.18266e-05 2.8394e-05 0.004 789.216 -4.31644 
325 1 1 -0.0222388 0.0402984 0.0039395 0 0 0 -4.09193e-07 -8.58199e-07 -9.41911e-07 8.22251e-07 5.27272e-08 2.56955e-06 0.000200665 5.22774e-05 -0.000105827 0.004 308.519 3.66426 
595 1 1 -0.014931 0.0435393 0.00398253 0 0 0 -8.36529e-07 1.02634e-07 -6.58073e-07 1.11347e-06 -6.3882e-07 1.66679e-06 0.000133387 -5.09385e-05 -0.000139694 0.004 334.665 7.23312 
568 1 1 0.0162912 0.0430934 0.00392629 0 0 0 -9.03256e-08 -1.97305e-07 8.35683e-07 1.03262e-06 -7.52695e-07 5.87869e-08 2.62627e-05 1.81601e-05 4.25191e-06 0.004 764.46 -8.6732 
387 1 1 -0.00719691 0.045487 0.00389931 0 0 0 -6.74871e-07 -3.05586e-07 -4.53298e-07 -4.18225e-07 -1.41742e-06 1.88816e-06 0.000145631 -9.29127e-05 -0.000119806 0.004 438.919 9.10733 
852 1 1 0.000758887 0.0460615 0.00397616 0 0 0 -5.59863e-07 9.3322e-08 9.15531e-08 2.42175e-07 -1.0437e-06 1.93723e-06 -1.70648e-05 -0.00010179 -6.2456e-05 0.004 570.02 -6.17962 
157 1 1 0.00865317 0.0452493 0.00389823 0 0 0 -2.00419e-07 -4.4363e-08 5.88363e-07 9.30045e-07 -1.9442e-06 1.44836e-06 -1.52529e-05 -3.74858e-05 -7.71389e-05 0.004 700.474 -11.7601 
400 1 1 -0.024752 -0.0387964 0.0097442 0 0 0 2.65218e-06 -4.89854e-07 2.50671e-06 -1.69297e-07 -5.2251e-06 -2.84705e-06 0.000108684 -0.000184414 -0.00035538 0.004 307.106 3.38602 
606 1 1 -0.00065395 -0.0387266 0.00813898 0 0 0 9.14666e-06 -1.17374e-06 5.14957e-06 3.81894e-06 -1.06248e-05 -8.60711e-06 -0.00016861 0.00035409 -0.000371505 0.004 535.565 3.59754 
724 1 1 -0.0339144 -0.0311598 0.00984802 0 0 0 3.54541e-06 4.66971e-07 2.3971e-06 2.18835e-06 -3.90068e-06 -3.17916e-06 -2.75438e-05 0.000398518 -1.72421e-05 0.004 301.514 0.9273 
183 1 1 0.0251946 -0.0311656 0.0075148 0 0 0 8.4298e-06 9.67166e-06 5.28687e-07 5.97948e-07 -8.4462e-06 -4.09376e-06 -0.000121943 0.00112369 -0.000201937 0.004 789.609 -3.92897 
544 1 1 -0.0140218 -0.0253027 0.00874969 0 0 0 1.68396e-05 -5.29386e-06 1.06689e-05 6.15519e-06 -1.89226e-05 -7.5554e-06 0.000288517 -0.000869707 -0.000780219 0.004 348.094 9.53974 
29 1 1 -0.00450632 -0.0263793 0.00900737 0 0 0 1.85684e-05 -8.8103e-06 1.20799e-05 5.07684e-06 -1.51088e-05 -1.38509e-05 -0.00090926 1.98329e-05 -0.000639425 0.004 443.161 11.9814 
248 1 1 0.00349898 -0.0278425 0.00763316 0 0 0 7.09636e-06 -5.3898e-06 1.50249e-05 4.67724e-06 -1.13438e-05 -1.35155e-05 0.00198667 0.00101732 0.000784898 0.004 619.407 -7.34146 
79 1 1 0.035837 -0.0289489 0.0095965 0 0 0 4.85671e-06 3.0315e-07 -3.40442e-06 1.04235e-06 -3.4794e-06 -6.6513e-07 0.00183516 -0.00146501 -0.000210119 0.004 798.305 -1.05521 
291 1 1 -0.00458876 -0.0173974 0.00909528 0 0 0 1.89532e-05 -1.06613e-05 1.41124e-05 4.75778e-06 -1.44768e-05 -9.27836e-06 -0.00013557 -0.00108918 -0.000111763 0.004 478.597 4.93253 
891 1 1 0.00373486 -0.015528 0.00632514 0 0 0 9.38779e-06 -8.68147e-06 6.33906e-06 2.20022e-06 -8.17089e-06 -9.24968e-06 -0.0004398 -0.000580409 0.00074326 0.004 610.92 -4.46439 
870 1 1 0.0138322 -0.0156363 0.00831025 0 0 0 1.85694e-05 3.25574e-06 1.12439e-05 4.74769e-06 -1.45018e-05 -1.43862e-05 -0.00188526 0.00290108 0.00183151 0.004 748.014 -10.1854 
777 1 1 0.034969 -0.0187779 0.00771001 0 0 0 9.56512e-06 9.73141e-06 4.61486e-07 -1.1783e-05 -1.54471e-05 4.46934e-06 0.0016433 -0.00255366 -0.00276369 0.004 799.078 -0.57218 
837 1 1 -0.029449 -0.0146727 0.00803326 0 0 0 1.06225e-05 -2.22528e-06 7.05032e-06 1.46329e-05 -6.18296e-06 -4.9216e-06 -9.70012e-05 -2.10695e-05 -0.00120461 0.004 303.111 1.49704 
445 1 1 -0.0181359 -0.0138492 0.0099528 0 0 0 2.00205e-05 -1.24192e-05 1.00431e-05 1.73361e-05 -1.53835e-05 -1.15949e-05 -0.000847264 -0.000460026 0.000618474 0.004 326.306 6.60403 
783 1 1 0.00485891 -0.00860648 0.00993775 0 0 0 1.87884e-05 -1.35309e-05 8.57022e-06 4.51987e-06 -7.7888e-06 -1.29477e-05 0.00130019 0.00184059 -0.00320039 0.004 639.54 -8.3919 
615 1 1 -0.0351 -0.000758701 0.0095518 0 0 0 3.20445e-06 -6.53874e-06 -1.98241e-06 1.63781e-05 7.95664e-07 -9.60874e-07 0.000422933 0.000504084 -0.000627152 0.004 300.903 0.542805 
476 1 1 -0.0459522 0.0026214 0.00988976 0 0 0 -2.98694e-07 -1.8527e-06 8.31488e-07 6.14868e-06 -1.09851e-07 1.19628e-06 4.63423e-05 -0.000300328 1.7328e-05 0.004 300.037 0.0363699 
16 1 1 -0.0210456 0.00169442 0.00830926 0 0 0 9.63874e-06 -1.09996e-05 -6.19824e-06 1.62942e-05 -2.74143e-06 -5.66553e-06 -0.000674276 0.00043682 -0.000776655 0.004 315.096 4.86957 
303 1 1 0.0459492 0.00350465 0.00962659 0 0 0 3.52691e-06 8.95619e-06 -4.6207e-06 1.12709e-06 -9.0962e-06 -3.51267e-06 0.000156207 -0.000903571 -0.00177694 0.004 799.945 -0.0522175 
523 1 1 -0.0389798 0.00803081 0.00932857 0 0 0 -8.77786e-08 -4.67347e-06 -2.18111e-06 1.19878e-05 1.52523e-06 4.92416e-06 6.12859e-05 -0.000144018 6.29862e-05 0.004 300.357 0.251224 
704 1 1 -0.010798 0.00519227 0.00743859 0 0 0 1.40398e-05 -1.36881e-05 -1.06597e-05 1.22062e-05 -4.31824e-06 -1.99923e-06 -0.000413967 -0.000294816 0.00111997 0.004 375.063 9.80116 
454 1 1 0.00101173 0.00715938 0.00933959 0 0 0 1.85371e-05 -1.03273e-05 -1.23006e-05 9.08988e-06 -8.50333e-06 -7.37357e-06 0.000609205 -0.000383907 0.00316527 0.004 555.118 -0.29324 
31 1 1 0.0102164 0.00547598 0.00832597 0 0 0 1.3939e-05 -7.03022e-06 -7.38923e-06 8.92978e-06 -1.36391e-05 -1.17301e-05 0.00156608 -0.00162742 0.00170645 0.004 706.987 -10.8016 
135 1 1 0.0188885 0.00749176 0.00960787 0 0 0 1.03502e-06 3.39292e-06 -4.53336e-07 1.15213e-05 -1.39441e-05 -9.20166e-06 -0.000933488 -0.000603372 -0.00146941 0.004 787.941 -4.65256 
712 1 1 0.0281138 0.00743271 0.0099886 0 0 0 1.07325e-06 2.11717e-06 -3.60545e-06 7.15139e-06 -6.79841e-06 -8.52159e-06 -0.000337176 0.000534949 0.000113686 0.004 796.852 -1.6722 
210 1 1 0.0394934 0.00814609 0.00989884 0 0 0 6.32535e-06 6.03901e-06 -3.59865e-06 1.79237e-06 -6.64825e-06 -9.49761e-06 -8.06874e-05 0.0012344 0.00102598 0.004 799.769 -0.184688 
651 1 1 -0.0437987 0.0143398 0.00823564 0 0 0 -7.24891e-08 -2.29651e-06 -5.88214e-07 5.07205e-06 1.58284e-06 2.67724e-06 0.000418171 -0.000151255 -0.000307774 0.004 300.12 0.102725 
621 1 1 0.0437181 0.0147846 0.00900767 0 0 0 1.75293e-06 2.79571e-06 -1.91673e-06 2.71766e-06 -2.90218e-06 -3.57481e-06 0.000835864 -2.01958e-06 -0.00021399 0.004 799.67 -0.237184 
726 1 1 -0.0257657 0.0199972 0.00692821 0 0 0 2.54521e-07 -5.63773e-06 -3.5928e-06 8.57417e-06 1.94293e-06 6.39477e-06 -0.00134634 -0.00135949 -0.000295122 0.004 304.562 2.19983 
230 1 1 -0.00847471 0.024595 0.00973771 0 0 0 5.46856e-06 -7.9261e-06 -4.11483e-06 7.1255e-06 -6.26003e-06 3.01048e-06 -0.000225945 0.000555718 0.000741935 0.004 415.222 11.3588 
320 1 1 -0.00171271 0.020405 0.00979383 0 0 0 7.6676e-06 -6.98419e-06 -4.21857e-06 7.26588e-06 -8.73469e-06 -1.06232e-06 -2.2171e-05 -0.000529761 -0.000136761 0.004 499.031 9.07972 
7 1 1 0.012921 0.0224303 0.00918517 0 0 0 2.96393e-06 3.00345e-07 6.17915e-07 5.709e-06 -1.03264e-05 -1.93633e-08 0.000394338 -0.000719633 0.000337059 0.004 734.224 -9.86166 
83 1 1 0.0214164 0.0239652 0.00888426 0 0 0 2.66986e-06 9.26673e-07 2.20137e-06 1.87528e-06 -7.41442e-06 -1.56917e-06 0.00098148 -7.43338e-06 0.000686914 0.004 785.806 -4.71127 
747 1 1 -0.0337321 0.0313835 0.00974068 0 0 0 -1.1882e-06 -2.12766e-06 -8.18844e-07 4.21003e-06 -3.5948e-07 7.56339e-06 9.42343e-05 -9.92097e-05 -0.00034537 0.004 301.854 1.09148 
51 1 1 -0.0226192 0.0329654 0.00703447 0 0 0 3.43004e-07 -3.7279e-06 -1.84412e-06 2.35494e-06 9.30506e-07 6.63528e-06 2.94637e-05 -0.000120681 0.000497096 0.004 305.09 2.53086 
116 1 1 -0.00940737 0.0391203 0.00809812 0 0 0 -5.08424e-07 -1.17894e-06 -9.03767e-07 2.44568e-06 -4.55787e-06 7.00581e-06 -0.00025176 0.000107049 0.000448251 0.004 414.827 12.4575 
205 1 1 -0.000560464 -0.0460776 0.0110172 0 0 0 5.96984e-06 -3.79623e-07 3.61961e-06 4.43188e-06 -6.57764e-06 -4.88166e-06 0.000801692 0.000958733 -0.000853654 0.004 509.848 13.1685 
836 1 1 0.00737984 -0.0454688 0.0106611 0 0 0 5.73332e-06 4.41441e-07 3.61517e-06 2.4862e-06 -6.02594e-06 -5.25237e-06 0.000562691 2.38757e-06 -0.000630607 0.004 648.315 -8.76866 
486 1 1 -0.0156916 -0.0402432 0.0103352 0 0 0 2.59189e-06 6.23067e-07 8.73158e-06 -9.38377e-07 -4.48874e-06 -2.64798e-07 -0.00164456 -0.000605056 -0.00110375 0.004 331.763 8.45206 
311 1 1 -0.00836813 -0.0439881 0.0106791 0 0 0 1.12943e-05 -5.30116e-06 4.40613e-07 1.21154e-05 -1.46902e-05 -1.00052e-05 0.0011583 0.00159663 0.005232 0.004 363.448 13.4504 
447 1 1 0.0180551 -0.0423881 0.0118323 0 0 0 5.45647e-06 7.59484e-07 9.7857e-07 3.03667e-06 -5.81802e-06 -2.75607e-06 -0.000645088 0.00209684 -0.000384322 0.004 753.938 -10.0339 
538 1 1 -0.0295743 -0.0353509 0.0149849 0 0 0 5.42799e-06 4.01261e-07 2.7691e-06 1.31017e-06 -6.54549e-06 -4.36602e-06 0.000215387 0.000103792 -0.000703013 0.004 303.876 1.90504 
279 1 1 0.011155 -0.0385417 0.0114153 0 0 0 1.23076e-05 5.49997e-07 1.06613e-05 5.19864e-06 -1.07373e-05 -9.31174e-06 0.000906082 0.00110988 -0.000569121 0.004 700.836 -10.1923 
110 1 1 0.0250464 -0.0386627 0.0117242 0 0 0 2.65032e-06 1.47532e-06 3.42743e-06 1.00775e-06 -4.0488e-06 -1.65633e-06 0.0019707 -0.00246057 -5.8308e-05 0.004 783.129 -5.8616 
188 1 1 -0.0179042 -0.0321006 0.0101564 0 0 0 1.05416e-05 -2.06345e-06 8.00724e-06 6.18312e-06 -1.82915e-05 -8.94959e-06 -2.94357e-05 0.000307591 -0.00095743 0.004 328.686 7.65208 
810 1 1 -0.0102601 -0.0344509 0.0102037 0 0 0 1.0762e-05 -5.49748e-06 8.56631e-06 6.82838e-06 -1.59737e-05 -1.16494e-05 -4.73773e-05 0.000186195 -0.000788936 0.004 381.431 10.6318 
412 1 1 -0.00316749 -0.0328805 0.0133528 0 0 0 1.45029e-05 -6.4422e-06 1.603e-05 1.00325e-05 -1.84429e-05 -1.97486e-05 -3.97576e-05 -0.000469595 -5.43916e-05 0.004 472.259 6.66059 
545 1 1 0.0045205 -0.0343087 0.0121942 0 0 0 1.4833e-05 -2.9407e-06 1.60797e-05 7.62831e-06 -1.43213e-05 -1.48547e-05 0.00168546 -0.000440883 0.000302486 0.004 619.039 -5.27214 