ITEM: TIMESTEP
34400
ITEM: NUMBER OF ATOMS
891
ITEM: BOX BOUNDS mm mm mm
-0.05 0.05
-0.05 0.05
0 0.15
ITEM: ATOMS id type type x y z ix iy iz vx vy vz fx fy fz omegax omegay omegaz radius f_Temp[0] f_heatFlux[0] 
199 1 1 -0.00444378 -0.0458158 0.00397435 0 0 0 2.01176e-07 3.72233e-07 1.12389e-06 5.40991e-07 1.68378e-07 1.10846e-07 0.00016294 -4.6975e-05 -5.31473e-06 0.004 483.579 3.24403 
873 1 1 -0.0201484 -0.0414789 0.0039016 0 0 0 6.60285e-07 3.54032e-07 7.44641e-07 5.54521e-07 2.40352e-08 3.61908e-07 0.00011214 6.75317e-05 -5.79093e-05 0.004 390.147 4.61573 
485 1 1 -0.0126796 -0.0442534 0.00397264 0 0 0 2.61749e-07 4.23262e-07 9.77418e-07 5.18827e-07 3.93942e-08 2.84955e-07 5.74457e-05 -0.000182313 4.24455e-05 0.004 424.494 5.03462 
850 1 1 0.00335642 -0.0441759 0.00394115 0 0 0 7.26169e-07 1.26041e-06 1.4202e-06 6.31762e-07 3.96447e-07 -8.61748e-08 -0.000206109 0.000201473 -3.2561e-05 0.004 552.457 0.205078 
186 1 1 0.0114401 -0.0445988 0.00392827 0 0 0 3.37304e-07 6.31323e-07 8.64537e-07 3.85405e-07 7.36714e-08 -7.46593e-09 -6.72407e-06 0.000174367 -7.20495e-05 0.004 650.885 -3.5932 
560 1 1 0.018969 -0.0420006 0.00394676 0 0 0 7.37591e-08 4.69373e-07 5.668e-07 2.6748e-07 -7.47479e-08 -1.26317e-07 2.29009e-06 2.09968e-07 -4.45609e-05 0.004 687.852 -4.26567 
102 1 1 -0.0147501 -0.0357331 0.00386311 0 0 0 9.099e-07 1.01165e-06 1.88983e-06 9.58117e-07 -9.52725e-08 5.08141e-07 -2.54118e-05 2.90169e-05 8.62693e-05 0.004 416.639 3.92234 
88 1 1 -0.00730762 -0.0383837 0.00392727 0 0 0 9.1681e-07 9.6865e-07 1.78965e-06 8.81238e-07 2.78618e-07 1.60917e-07 -0.000134087 8.2071e-05 -7.69078e-05 0.004 465.569 3.18341 
776 1 1 0.00520385 -0.0354368 0.00395024 0 0 0 7.5583e-07 1.70402e-06 1.94162e-06 1.06796e-06 4.9969e-07 3.23217e-07 -0.00023516 0.000150061 -0.000119582 0.004 602.547 -1.59766 
410 1 1 0.0130236 -0.0368131 0.00392572 0 0 0 4.21101e-07 9.59547e-07 1.42385e-06 8.09027e-07 5.66335e-09 -8.47894e-08 -6.23049e-05 0.00013137 -5.13395e-05 0.004 658.573 -3.44983 
282 1 1 0.025876 -0.0381319 0.00388527 0 0 0 1.84547e-07 5.10089e-07 5.17073e-07 3.73713e-07 3.14225e-07 -1.78859e-07 -3.57232e-05 7.39244e-05 -2.64275e-05 0.004 730.463 -4.38481 
682 1 1 -0.0302016 -0.0348779 0.00393465 0 0 0 2.48112e-07 7.55678e-08 4.26455e-07 3.3157e-07 -6.60366e-08 1.61597e-07 4.26298e-05 -5.15199e-05 -1.52545e-05 0.004 342.271 3.5356 
251 1 1 -0.0224189 -0.0338476 0.00392332 0 0 0 7.27626e-07 5.62376e-07 1.43149e-06 8.68491e-07 4.42695e-08 6.45504e-07 -4.98083e-05 -7.66986e-05 6.15564e-05 0.004 375.313 4.12923 
770 1 1 -0.00204754 -0.0321408 0.00393965 0 0 0 8.22471e-07 1.73723e-06 1.95655e-06 1.26586e-06 5.35104e-07 1.78081e-07 -0.000256846 -6.77013e-05 0.000297409 0.004 543.323 0.321822 
883 1 1 0.018166 -0.0307536 0.00390024 0 0 0 3.59138e-07 1.1395e-06 1.43826e-06 9.73392e-07 4.76888e-07 -4.82957e-07 -0.000184028 -4.93206e-05 3.63029e-05 0.004 699.53 -4.00848 
838 1 1 0.0320336 -0.033109 0.00396073 0 0 0 2.20175e-07 3.80858e-07 3.05232e-07 3.92965e-07 2.22306e-07 -7.04272e-07 -1.18519e-05 8.27586e-05 -6.55721e-05 0.004 756.311 -3.88063 
617 1 1 -0.0372521 -0.0271215 0.00391646 0 0 0 9.5313e-08 5.5783e-08 2.72908e-07 3.48537e-07 -5.19506e-08 2.17103e-07 -1.72409e-05 -2.62473e-05 2.13291e-06 0.004 319.504 2.5109 
824 1 1 -0.0292998 -0.0270298 0.00392984 0 0 0 2.49298e-07 -4.14868e-08 8.64107e-07 8.25212e-07 -2.68772e-07 2.45594e-07 3.85303e-05 -3.99002e-05 5.46033e-07 0.004 332.49 3.14605 
571 1 1 -0.0202615 -0.0262215 0.00393285 0 0 0 8.71659e-07 6.47224e-07 1.59979e-06 1.54951e-06 -2.75667e-07 2.71655e-07 -2.31596e-05 8.82648e-05 9.06518e-05 0.004 371.777 4.04636 
861 1 1 -0.00959295 -0.0297304 0.00389698 0 0 0 1.22118e-06 9.60594e-07 2.33431e-06 1.59118e-06 -4.87283e-07 3.47452e-07 -1.24945e-05 0.000205083 -0.000178577 0.004 458.22 2.85246 
434 1 1 0.0103455 -0.0293807 0.00393743 0 0 0 7.69742e-07 1.34003e-06 1.84714e-06 1.36665e-06 7.84881e-08 -2.11392e-08 -0.000112745 0.000188299 -8.40906e-05 0.004 648.177 -2.9082 
103 1 1 0.0311547 -0.0252347 0.00394364 0 0 0 2.98139e-07 3.83903e-07 3.84217e-07 6.42038e-07 1.50715e-07 -7.6772e-07 -5.59131e-05 6.97044e-05 5.03044e-05 0.004 763.282 -3.41418 
769 1 1 -0.041344 -0.0202818 0.0039823 0 0 0 -7.44118e-09 1.0555e-08 7.14263e-08 3.57786e-07 -6.76069e-08 1.85184e-07 -3.99078e-07 -2.05914e-05 7.18805e-06 0.004 312.282 1.93972 
94 1 1 -0.0333714 -0.0202163 0.00394369 0 0 0 8.38218e-08 1.49792e-08 5.84691e-07 8.23021e-07 -1.29402e-07 2.22156e-07 9.68265e-06 -9.84782e-05 -1.89128e-06 0.004 322.44 2.55001 
40 1 1 -0.025401 -0.0201464 0.00391761 0 0 0 2.6857e-07 3.19659e-08 1.20756e-06 1.28889e-06 -4.93326e-07 3.00609e-07 -5.99008e-05 -6.62991e-05 2.35981e-05 0.004 343.126 3.33473 
19 1 1 -0.00865073 -0.0218804 0.00393966 0 0 0 1.62276e-06 4.77532e-07 2.06505e-06 1.75558e-06 -8.04098e-07 2.45794e-07 -9.72133e-05 0.00020722 6.65712e-05 0.004 460.366 2.78062 
442 1 1 -0.000436977 -0.0218499 0.00393584 0 0 0 1.55405e-06 4.98097e-07 1.97146e-06 1.8859e-06 -7.55545e-07 -1.90953e-07 -2.46293e-05 0.000291247 8.9488e-05 0.004 552.184 0.0909563 
259 1 1 0.00753191 -0.0220001 0.00392512 0 0 0 1.29402e-06 1.2676e-06 1.55392e-06 1.75078e-06 -4.05099e-08 -3.59711e-07 -0.000220977 0.000188195 2.07149e-05 0.004 632.567 -2.39321 
512 1 1 0.0153883 -0.0232356 0.00397835 0 0 0 7.80832e-07 1.05352e-06 1.18074e-06 1.16306e-06 6.61622e-07 -2.65434e-08 -0.000119293 -5.92798e-05 -2.67278e-05 0.004 694.249 -3.61139 
470 1 1 0.0232616 -0.0243589 0.00390816 0 0 0 4.50122e-07 8.39929e-07 1.11138e-06 9.70213e-07 7.96557e-07 -4.71481e-07 -0.000225781 0.000119208 -8.67124e-05 0.004 736.226 -3.96633 
451 1 1 0.0390293 -0.0244875 0.00392048 0 0 0 3.60894e-07 2.52138e-07 2.35875e-08 4.12314e-07 1.07452e-07 -1.29097e-07 -6.77236e-05 7.00863e-05 -9.96179e-05 0.004 779.162 -2.57333 
531 1 1 -0.0164596 -0.0192004 0.00396125 0 0 0 5.57237e-07 4.08761e-07 1.01144e-06 1.26506e-06 -2.85873e-07 -2.79284e-08 -7.97932e-05 0.000123948 -0.000168413 0.004 382.527 4.25632 
229 1 1 0.0202059 -0.0169136 0.00386876 0 0 0 6.24631e-07 8.57236e-07 1.22454e-06 1.40481e-06 6.83473e-07 -6.19826e-07 -9.65673e-05 0.000169269 9.80762e-05 0.004 725.32 -3.69407 
734 1 1 0.0280521 -0.017942 0.00394398 0 0 0 7.56504e-07 4.98227e-07 -8.08803e-08 1.33591e-06 9.40858e-07 -6.8301e-07 -0.000162052 0.00021915 -0.000223625 0.004 762.038 -3.19291 
635 1 1 0.0425981 -0.0174495 0.00392192 0 0 0 2.69027e-07 8.52745e-08 -9.75725e-08 1.90619e-07 2.46533e-07 -1.49974e-07 8.44171e-06 3.83162e-05 4.91202e-05 0.004 790.586 -1.5682 
87 1 1 -0.0448224 -0.0104639 0.0039142 0 0 0 7.60911e-08 2.03706e-08 9.14707e-08 2.3162e-07 -1.16354e-07 1.39534e-07 -1.31274e-05 9.00084e-06 2.11152e-05 0.004 305.792 1.13298 
406 1 1 -0.0373951 -0.013391 0.00396016 0 0 0 6.96669e-08 -4.46631e-08 2.10252e-07 7.30841e-07 -2.45065e-07 -2.0296e-09 1.02881e-05 -7.65054e-06 -2.19841e-05 0.004 311.579 1.76156 
224 1 1 -0.0230581 -0.0126019 0.00387961 0 0 0 6.79124e-07 -4.24361e-07 1.15145e-06 1.60422e-06 -1.00864e-06 1.898e-08 9.5362e-05 9.79925e-05 -9.40358e-05 0.004 356.503 3.36196 
751 1 1 -0.0102997 -0.0141545 0.00396945 0 0 0 8.39262e-07 -1.91306e-08 1.07621e-06 1.12173e-06 -7.07579e-07 -4.63386e-07 -6.1556e-05 -5.14799e-05 4.00043e-05 0.004 437.012 3.12597 
622 1 1 -0.00273389 -0.0117409 0.00388525 0 0 0 9.55187e-07 8.13282e-09 1.71882e-06 1.20967e-06 -1.0109e-06 -8.19307e-07 -9.74081e-05 -1.05585e-06 0.000124953 0.004 509.623 1.17281 
128 1 1 0.00951065 -0.010685 0.00388459 0 0 0 7.84468e-07 6.73036e-07 1.94916e-06 1.49983e-06 -1.16669e-07 -1.13572e-06 -0.000161698 0.000124568 8.20617e-06 0.004 657.738 -2.91438 
68 1 1 0.0262808 -0.010211 0.0039544 0 0 0 1.19855e-06 4.40786e-07 -5.21781e-08 1.47366e-06 8.08582e-07 -6.55282e-07 -7.97436e-05 0.000145901 0.000150219 0.004 765.606 -3.04223 
791 1 1 0.0340945 -0.0118532 0.00392801 0 0 0 1.18913e-06 3.66648e-07 -1.43068e-07 1.7285e-06 1.02821e-06 -7.46326e-07 -0.00022925 0.00022862 -0.000391339 0.004 784.142 -2.13682 
354 1 1 -0.0380749 -0.00550396 0.00392042 0 0 0 5.44276e-09 -4.82156e-08 6.94816e-08 2.93403e-07 -4.89457e-07 2.38195e-08 -1.38126e-05 -2.64672e-05 5.73385e-06 0.004 310.35 1.55316 
725 1 1 -0.0304901 -0.00800531 0.0039252 0 0 0 1.66346e-07 -5.68773e-08 4.48176e-07 1.10735e-06 -2.88021e-07 2.86303e-08 -7.10229e-05 2.02474e-05 2.72406e-05 0.004 320.389 2.28279 
353 1 1 -0.0161288 -0.00879809 0.00391144 0 0 0 6.66678e-07 -4.44567e-07 1.06197e-06 1.03437e-06 -7.50604e-07 -5.69435e-07 0.000177251 7.8262e-05 4.88563e-05 0.004 395.981 3.4846 
391 1 1 -0.00857662 -0.00639748 0.00391358 0 0 0 7.8398e-07 -4.59855e-07 1.28794e-06 1.05722e-06 -8.27137e-07 -8.98734e-07 0.000188582 9.98936e-05 -7.55269e-05 0.004 456.159 2.61895 
683 1 1 0.0173533 -0.00945628 0.00390987 0 0 0 8.57625e-07 7.17519e-07 8.13923e-07 1.59019e-06 7.23816e-07 -1.00407e-06 -0.000134373 0.000132606 2.556e-05 0.004 715.711 -3.69738 
690 1 1 0.0385537 -0.00520143 0.00390023 0 0 0 9.49674e-07 8.53583e-07 -6.39848e-07 1.04237e-06 8.49901e-07 -5.73653e-07 -0.000200345 0.000202467 -0.000132055 0.004 791.361 -1.39107 
10 1 1 0.0449635 -0.00990888 0.003974 0 0 0 1.30744e-07 2.08209e-07 -1.3812e-07 1.26144e-07 2.99818e-07 -1.72873e-07 -2.60242e-05 -4.0049e-05 -3.67362e-05 0.004 794.566 -1.07685 
402 1 1 -0.046017 -0.00264172 0.00392182 0 0 0 -2.79032e-08 2.93014e-08 -9.93499e-09 1.05134e-07 -1.93751e-07 1.37508e-07 -8.86681e-06 -1.0592e-05 -2.5179e-07 0.004 306.129 1.11635 
761 1 1 -0.0294744 -0.000168332 0.00392563 0 0 0 2.83281e-07 -2.49093e-07 2.57109e-07 3.2346e-07 -6.70696e-07 -2.12232e-07 1.69788e-05 2.13357e-05 -2.36522e-05 0.004 329.994 2.63794 
293 1 1 -0.0229324 -0.00466872 0.0039595 0 0 0 4.84382e-07 -4.08564e-07 7.91666e-07 6.87864e-07 -8.39207e-07 -1.1869e-07 -3.3973e-05 -3.90246e-05 1.86553e-05 0.004 354.974 3.3946 
384 1 1 -0.0147181 -0.000896187 0.0039815 0 0 0 0.000482433 0.000450356 -2.2527e-08 -1.44262e-12 -2.99122e-12 -7.01098e-08 -0.11285 0.120888 0.176243 0.004 302.583 0 
378 1 1 0.00130608 -0.00490406 0.00392906 0 0 0 6.74198e-07 -3.42669e-08 1.22162e-06 1.49676e-06 -4.36467e-07 -7.52499e-07 -0.000204134 -4.34831e-05 4.30236e-05 0.004 556.265 -0.195737 
390 1 1 0.0103707 -0.0027653 0.00396887 0 0 0 5.75282e-07 4.64529e-07 6.52996e-07 1.25268e-06 1.34417e-07 -6.65082e-07 -0.000179438 2.79176e-05 0.000233993 0.004 674.053 -3.57296 
411 1 1 0.0223603 -0.00329286 0.00397626 0 0 0 1.8838e-06 2.78282e-07 5.68111e-08 1.15191e-06 7.05755e-07 -7.48625e-07 1.02134e-05 0.00031391 -0.000327675 0.004 750.183 -3.60605 
342 1 1 0.0307348 -0.00361665 0.00397529 0 0 0 3.40269e-07 8.87069e-07 -1.91986e-07 9.33353e-07 1.01443e-06 -1.47785e-07 -5.42956e-05 -3.59869e-06 0.000174164 0.004 783.873 -2.08784 
262 1 1 0.0460221 -0.00206505 0.00395833 0 0 0 2.93945e-07 2.93564e-07 -1.38451e-07 1.57699e-07 3.4378e-07 -1.66064e-07 -6.29591e-05 2.70161e-05 -6.93963e-05 0.004 794.815 -1.03843 
261 1 1 -0.0398214 0.00224601 0.00393476 0 0 0 7.37984e-08 -2.90594e-08 -1.45289e-08 1.93841e-07 -4.54476e-07 5.38915e-08 -5.05418e-06 1.17374e-05 -1.91462e-05 0.004 310.873 1.52233 
666 1 1 -0.00454676 0.000451429 0.00395605 0 0 0 9.93485e-07 -7.50463e-07 1.13455e-06 8.81573e-07 -5.13574e-07 -8.96941e-07 3.14999e-05 0.000325501 1.63815e-05 0.004 497.71 1.6456 
815 1 1 0.00434367 0.0024356 0.00392712 0 0 0 8.3577e-07 -3.46215e-07 5.79255e-07 1.24962e-06 -3.40694e-07 -7.55506e-07 0.000115879 0.000121675 -0.000154471 0.004 605.671 -1.68168 
306 1 1 0.01637 0.00247667 0.0039581 0 0 0 1.32766e-06 6.04322e-08 -1.18077e-08 8.54532e-07 2.92372e-07 -5.11717e-07 9.95657e-06 0.000196155 -0.000485797 0.004 722.308 -4.14083 
178 1 1 0.0241042 0.00444176 0.00386115 0 0 0 1.45733e-06 3.25177e-07 -3.02193e-07 7.06707e-07 6.33033e-07 -6.80382e-07 -4.43865e-05 0.000268619 0.000478524 0.004 753.266 -3.43973 
862 1 1 0.0320656 0.00423367 0.00393098 0 0 0 7.64319e-07 8.9855e-07 -7.2496e-07 5.54937e-07 8.68443e-07 -7.46871e-07 -0.000200925 5.22332e-06 -0.000333274 0.004 778.844 -2.3366 
661 1 1 0.0398756 0.0029147 0.00394681 0 0 0 4.33682e-07 2.51987e-07 -2.83422e-07 4.53726e-07 6.746e-07 -4.34925e-07 -9.51428e-05 2.53305e-05 8.66951e-05 0.004 790.731 -1.44571 
677 1 1 -0.0453782 0.0078854 0.00393641 0 0 0 2.95027e-08 2.93604e-08 -3.05579e-08 7.50966e-08 -2.22297e-07 7.18822e-08 -1.12257e-05 3.7705e-06 3.42767e-06 0.004 306.304 1.15753 
12 1 1 -0.0333161 0.00671961 0.00393696 0 0 0 2.1606e-07 -1.81286e-07 9.95759e-08 2.52752e-07 -6.34161e-07 3.04897e-08 9.76255e-06 -3.17563e-05 -1.27082e-05 0.004 322.377 2.26542 
420 1 1 -0.0254 0.00664839 0.00392687 0 0 0 4.43287e-07 -3.75576e-07 3.89303e-07 3.7879e-07 -7.57356e-07 -2.00738e-07 4.78938e-05 8.02694e-06 -1.23618e-05 0.004 346.052 3.08017 
654 1 1 -0.0175134 0.00720947 0.00387213 0 0 0 7.15061e-07 -7.43357e-07 4.94626e-07 4.27646e-07 -8.43894e-07 -6.62759e-07 0.000101624 5.79651e-05 -0.000100407 0.004 385.711 3.48129 
145 1 1 -0.00454408 0.00836538 0.00386312 0 0 0 9.66099e-07 -8.77268e-07 7.57167e-07 6.82479e-07 -4.18186e-07 -1.00976e-06 8.16135e-05 0.000148018 -3.27731e-05 0.004 496.322 1.75487 
624 1 1 0.0451449 0.00890653 0.00390658 0 0 0 4.34044e-07 3.85809e-07 -4.10642e-07 5.50069e-07 4.79376e-07 -6.01233e-07 -7.17299e-05 7.31671e-05 -1.13045e-05 0.004 793.453 -1.20913 
613 1 1 -0.0372991 0.0135339 0.00384344 0 0 0 1.84996e-07 -6.89064e-08 1.97953e-08 1.51427e-07 -4.30605e-07 1.56382e-07 1.51239e-05 2.09648e-05 -1.81144e-05 0.004 313.946 1.86122 
265 1 1 -0.0293062 0.0135429 0.00396371 0 0 0 3.29559e-07 -2.59016e-07 2.44508e-07 2.15024e-07 -5.57773e-07 1.27802e-07 -3.35304e-06 -3.10025e-05 -2.77201e-05 0.004 332.362 2.90571 
273 1 1 -0.0213694 0.0141274 0.00392939 0 0 0 5.80018e-07 -4.63347e-07 4.09208e-07 2.49993e-07 -6.27355e-07 -2.30994e-08 1.50128e-05 5.55032e-05 5.08201e-05 0.004 357.372 3.54609 
492 1 1 -0.01145 0.0123712 0.00398079 0 0 0 8.26306e-07 -8.57476e-07 5.63118e-07 2.93894e-07 -4.92226e-07 -6.02573e-07 6.58212e-05 7.56951e-05 5.12118e-05 0.004 434.489 3.63655 
234 1 1 0.00585284 0.010393 0.00392891 0 0 0 7.92186e-07 -6.8887e-07 3.06823e-07 1.01388e-06 5.85546e-08 -9.92402e-07 7.23233e-06 0.00011562 -4.72858e-05 0.004 599.975 -1.2493 
160 1 1 0.0142843 0.0106356 0.00390959 0 0 0 6.99902e-07 -4.5688e-07 1.48999e-07 1.00278e-06 6.88861e-07 -1.02709e-06 9.69753e-05 8.88197e-05 7.14023e-05 0.004 690.003 -3.30145 
484 1 1 0.0220893 0.0120738 0.0039012 0 0 0 4.70526e-07 -1.20027e-07 -1.79824e-07 6.80302e-07 5.27185e-07 -6.90262e-07 6.40021e-06 0.000101969 -0.000100806 0.004 740.128 -3.48102 
743 1 1 0.0300184 0.0126216 0.00398127 0 0 0 4.36485e-07 -2.10722e-07 -2.76478e-07 5.60639e-07 4.90751e-07 -3.24234e-07 5.70344e-05 -1.27537e-05 7.12477e-05 0.004 766.784 -2.8944 
514 1 1 0.0379536 0.0130186 0.00386906 0 0 0 4.73734e-07 3.91125e-07 -5.80297e-07 5.49209e-07 5.57466e-07 -9.4558e-07 -6.58379e-05 0.000116173 5.13304e-05 0.004 784.486 -1.97673 
530 1 1 -0.0159002 0.0198648 0.00392796 0 0 0 6.53901e-07 -5.62984e-07 2.70421e-07 -9.23886e-09 -2.82736e-07 -4.22327e-07 4.91228e-05 0.000107125 -3.0613e-05 0.004 385.816 3.78326 
227 1 1 -0.00736503 0.0192084 0.00396596 0 0 0 8.87769e-07 -8.49799e-07 5.00399e-07 1.3824e-07 -3.34473e-07 -8.20509e-07 0.000102811 0.000128376 -6.35971e-05 0.004 472.891 2.79909 
392 1 1 -0.000498635 0.0151513 0.00394447 0 0 0 9.05508e-07 -8.62554e-07 4.26517e-07 3.21788e-07 -4.85558e-08 -1.06044e-06 6.09232e-05 0.000155217 7.535e-05 0.004 535.189 0.780901 
493 1 1 0.00985839 0.0172531 0.00394648 0 0 0 6.79102e-07 -7.28757e-07 2.53606e-07 4.51321e-07 5.71534e-07 -1.02447e-06 7.35387e-05 6.49573e-05 2.19907e-05 0.004 643.066 -2.28277 
34 1 1 0.0176357 0.0187852 0.003941 0 0 0 5.76354e-07 -5.10845e-07 -1.45329e-08 4.86045e-07 7.46485e-07 -1.01068e-06 0.000109754 7.32108e-05 5.29638e-05 0.004 702.565 -3.27202 
206 1 1 0.0255397 0.0192353 0.00396994 0 0 0 5.07066e-07 -2.24432e-07 -1.21466e-07 4.31516e-07 4.44762e-07 -7.9756e-07 5.06546e-05 2.07696e-05 2.41822e-05 0.004 747.604 -3.3127 
104 1 1 0.0334175 0.0199346 0.0038965 0 0 0 4.55044e-07 1.68038e-07 -3.32065e-07 5.63959e-07 4.74109e-07 -9.24167e-07 -3.50997e-05 8.06572e-05 6.88372e-05 0.004 771.868 -2.73202 
809 1 1 -0.0412058 0.0204949 0.00395497 0 0 0 1.02777e-07 -2.59902e-11 4.24477e-08 5.66541e-08 -1.95013e-07 7.28493e-08 -1.65105e-06 6.19861e-06 5.52214e-06 0.004 309.557 1.63092 
773 1 1 -0.0331523 0.0204531 0.00393522 0 0 0 2.96468e-07 -1.2213e-07 1.05288e-07 5.40258e-08 -4.5649e-07 1.18324e-08 7.94068e-06 2.46954e-05 -2.49825e-07 0.004 323.985 2.72894 
792 1 1 0.00347677 0.0219735 0.00392106 0 0 0 7.57524e-07 -8.20272e-07 4.47074e-07 2.02824e-07 3.40903e-07 -8.34057e-07 0.000101769 6.74366e-05 -4.34688e-05 0.004 583.409 -0.758903 
718 1 1 0.0413199 0.0203659 0.00392989 0 0 0 3.12782e-07 2.67715e-07 -2.61556e-07 3.82747e-07 3.42185e-07 -5.76794e-07 -4.30772e-05 1.00021e-05 -8.21422e-06 0.004 784.296 -2.10667 
101 1 1 -0.0371146 0.0272995 0.00390402 0 0 0 1.69393e-07 -4.47067e-08 6.69693e-08 5.45876e-08 -2.63555e-07 1.06448e-07 2.85767e-06 2.1325e-05 -4.90439e-06 0.004 318.006 2.40322 
246 1 1 -0.0290567 0.0272807 0.00398271 0 0 0 2.6162e-07 -1.13574e-07 1.10941e-07 -4.25815e-07 -3.9997e-07 5.56266e-09 -1.6742e-06 -3.98672e-06 3.84598e-06 0.004 328.91 3.18309 
331 1 1 -0.0212281 0.0257799 0.00390018 0 0 0 4.77361e-07 -3.33071e-07 3.5803e-07 -1.20002e-07 -3.25377e-07 4.02085e-08 4.40014e-05 6.56915e-06 -1.95695e-05 0.004 358.778 3.67945 
846 1 1 -0.0134708 0.0274168 0.0039748 0 0 0 8.05838e-07 -7.25131e-07 3.9972e-07 -2.89412e-07 -3.12694e-08 -1.79102e-07 0.000169875 0.000162321 -3.38249e-05 0.004 406.952 3.45464 
348 1 1 -0.00329916 0.0260612 0.00393375 0 0 0 8.27506e-07 -7.27116e-07 4.67732e-07 -1.78082e-07 5.57613e-08 -5.29282e-07 2.32437e-05 0.000120832 6.05236e-05 0.004 517.455 1.25215 
786 1 1 0.00840353 0.0281551 0.00389685 0 0 0 6.26583e-07 -6.83206e-07 4.04568e-07 -4.34239e-09 5.31424e-07 -6.61259e-07 0.000104347 9.51493e-05 3.37433e-05 0.004 627.392 -2.15222 
316 1 1 0.0162833 0.0272928 0.0039063 0 0 0 5.48888e-07 -3.95229e-07 -6.3601e-08 -2.97263e-08 6.31315e-07 -6.75864e-07 9.2208e-05 9.4617e-05 9.36048e-05 0.004 696.279 -3.67148 
495 1 1 0.0288861 0.0264618 0.00396716 0 0 0 3.2429e-07 2.48824e-09 -1.67313e-07 3.88957e-07 3.59164e-07 -7.51945e-07 -3.96254e-05 3.0631e-05 -9.06759e-06 0.004 760.485 -3.37827 
863 1 1 0.0367263 0.0277633 0.00392937 0 0 0 2.36518e-07 8.95302e-08 -1.71056e-07 3.09069e-07 3.14477e-07 -5.00214e-07 -1.21175e-05 2.79966e-05 4.18886e-05 0.004 778.423 -2.70098 
511 1 1 -0.00761835 0.0327132 0.00388553 0 0 0 7.50989e-07 -7.73632e-07 5.84682e-07 -3.67474e-07 1.23039e-07 -3.6843e-07 0.000120509 0.00010793 1.7752e-05 0.004 483.274 2.05799 
722 1 1 0.00164033 0.0322874 0.00396636 0 0 0 5.58567e-07 -5.72566e-07 4.09936e-07 -1.79168e-07 1.76535e-07 -2.86977e-07 5.05754e-05 -2.18241e-05 -4.34781e-05 0.004 566.465 -0.397459 
2 1 1 0.0229311 0.031696 0.00396244 0 0 0 3.03472e-07 -1.53114e-07 -1.40108e-10 2.17189e-07 1.21731e-07 -6.3043e-07 4.60633e-05 6.84531e-05 4.36835e-05 0.004 730.587 -4.1846 
254 1 1 0.0304796 0.0344193 0.0039815 0 0 0 0.000481608 -0.000706171 -3.30117e-12 -3.44475e-16 5.0644e-16 3.00145e-10 0.176952 0.120681 -0.0211551 0.004 798.547 0 
257 1 1 -0.0296322 0.0352231 0.00395613 0 0 0 1.6393e-07 -1.17497e-07 9.62607e-08 -4.49371e-07 -3.83852e-07 1.98111e-07 1.82474e-05 1.70159e-05 1.68097e-06 0.004 331.091 3.50883 
582 1 1 -0.0157655 0.0356206 0.00393205 0 0 0 4.37629e-07 -2.65707e-07 4.32723e-07 -1.21909e-06 -2.05802e-07 -1.74031e-08 3.29214e-05 9.36279e-05 5.79661e-05 0.004 374.606 4.5933 
255 1 1 -0.00267125 0.038932 0.00391148 0 0 0 3.97851e-07 -4.7557e-07 4.89808e-07 -1.18077e-07 1.16016e-07 -1.40492e-07 5.98453e-05 7.23007e-05 7.06654e-05 0.004 520.274 1.02155 
887 1 1 0.00812084 0.0373183 0.00392889 0 0 0 3.01617e-07 -4.82858e-07 2.47498e-07 -6.0719e-08 3.09228e-07 -2.6657e-07 7.62243e-05 9.67027e-05 0.000107442 0.004 647.267 -3.39761 
719 1 1 0.0157853 0.0351951 0.00398364 0 0 0 2.21108e-07 -2.42764e-07 1.09719e-07 1.49228e-07 1.75854e-07 -3.78342e-07 -1.92023e-05 -3.08823e-05 -2.48114e-05 0.004 698.472 -4.25985 
21 1 1 0.0234243 0.0396338 0.00391497 0 0 0 1.02918e-07 -1.03653e-07 8.58105e-08 5.44722e-08 1.16081e-07 -2.62039e-07 1.03095e-05 1.43397e-05 -1.24893e-06 0.004 733.602 -4.39716 
325 1 1 -0.0222388 0.0402984 0.00393951 0 0 0 1.50801e-07 -1.0398e-07 1.33268e-07 -5.13545e-07 -1.33888e-07 -1.04566e-07 -1.76546e-05 9.7545e-06 2.20882e-05 0.004 362.8 4.58797 
595 1 1 -0.014931 0.0435393 0.00398254 0 0 0 4.03905e-08 -9.61406e-08 1.83476e-07 -3.07253e-07 -1.29576e-07 1.02367e-07 -3.34652e-05 -2.19915e-05 -5.42959e-06 0.004 398.683 4.38576 
568 1 1 0.0162912 0.0430934 0.00392629 0 0 0 1.00019e-07 -1.66192e-07 1.05045e-07 -4.20846e-10 1.19837e-07 -1.49902e-07 1.68331e-05 1.62345e-05 4.15536e-05 0.004 695.003 -4.16382 
387 1 1 -0.00719691 0.045487 0.00389933 0 0 0 7.766e-08 -3.1604e-07 3.07255e-07 -7.43137e-08 1.48518e-08 1.20276e-08 -8.30373e-06 4.80254e-06 1.6903e-05 0.004 486.157 2.15346 
852 1 1 0.000758888 0.0460615 0.00397617 0 0 0 5.09907e-08 -1.26849e-07 2.26301e-07 -3.55301e-08 2.54682e-08 -5.28939e-08 -4.58609e-05 1.17684e-05 1.75006e-05 0.004 555.091 -0.189666 
157 1 1 0.00865317 0.0452492 0.00389824 0 0 0 1.42268e-08 -2.66821e-07 2.27148e-07 1.30856e-08 1.22698e-07 -1.50791e-07 2.01162e-05 1.52044e-05 -1.29151e-05 0.004 636.525 -2.88552 
400 1 1 -0.024752 -0.0387964 0.00974418 0 0 0 8.01961e-07 3.81102e-07 1.00873e-06 8.08495e-07 -1.23211e-07 3.84266e-07 8.3614e-05 -2.67461e-05 -0.000142473 0.004 358.942 4.41974 
606 1 1 -0.000653945 -0.0387266 0.00813891 0 0 0 1.61103e-06 2.39985e-06 3.41325e-06 1.41635e-06 4.14721e-07 3.09783e-07 -7.35977e-05 -5.53953e-05 0.00014753 0.004 547.93 0.335102 
724 1 1 -0.0339144 -0.0311598 0.00984801 0 0 0 3.79035e-07 3.11097e-07 5.90229e-07 7.21891e-07 -1.03927e-07 9.35976e-08 -3.80227e-05 2.25152e-05 2.79333e-05 0.004 326.719 2.94356 
183 1 1 0.0251947 -0.0311656 0.00751475 0 0 0 5.67969e-07 8.73324e-07 1.62332e-06 7.63563e-07 7.11654e-07 -7.50992e-07 0.000161971 8.16678e-05 -4.18128e-05 0.004 739.278 -4.06892 
544 1 1 -0.0140218 -0.0253028 0.00874964 0 0 0 1.93593e-06 1.72629e-06 3.62714e-06 3.16627e-06 -9.13516e-07 5.47052e-07 -6.71837e-05 -0.000152042 2.08104e-05 0.004 412.71 3.56659 
29 1 1 -0.0045063 -0.0263793 0.00900728 0 0 0 2.59748e-06 2.08748e-06 4.55419e-06 3.25951e-06 -8.37386e-07 3.1014e-07 -0.000538515 -8.06726e-05 -2.14082e-06 0.004 494.731 1.87159 
248 1 1 0.003499 -0.0278426 0.00763308 0 0 0 1.80779e-06 1.97122e-06 5.45746e-06 2.39729e-06 -1.40114e-07 6.28594e-07 0.000888913 0.000292377 -0.000301168 0.004 589.028 -1.23471 
79 1 1 0.035837 -0.0289489 0.00959647 0 0 0 4.59209e-07 3.83143e-07 2.99971e-07 3.92738e-07 -2.48804e-07 -1.1598e-06 8.80901e-05 5.11462e-05 -9.82137e-05 0.004 770.474 -3.13337 
291 1 1 -0.00458873 -0.0173975 0.00909523 0 0 0 2.66303e-06 6.71669e-07 3.40164e-06 3.0076e-06 -1.5417e-06 -3.59082e-07 -0.000137488 0.000126238 -3.88925e-05 0.004 505.943 1.26042 
891 1 1 0.00373488 -0.015528 0.00632509 0 0 0 1.52509e-06 7.14921e-07 2.95095e-06 2.00007e-06 -7.24537e-07 -1.33082e-06 0.000155888 9.56564e-05 0.000141149 0.004 588.012 -1.10449 
870 1 1 0.0138323 -0.0156364 0.00831017 0 0 0 1.1752e-06 2.0451e-06 3.63811e-06 2.70371e-06 7.94645e-07 -9.95841e-07 -0.000370023 0.000309656 -0.000173704 0.004 681.688 -3.45065 
777 1 1 0.034969 -0.018778 0.00771001 0 0 0 4.05562e-07 -1.21745e-07 1.10885e-07 1.51907e-06 1.17347e-06 -7.01884e-07 0.000335511 -0.000245216 0.000195855 0.004 780.153 -2.4655 
837 1 1 -0.029449 -0.0146727 0.00803325 0 0 0 4.5086e-07 3.63829e-08 1.27001e-06 1.95909e-06 -6.70376e-07 4.32783e-07 -2.56941e-05 1.97029e-05 -6.58205e-05 0.004 329.907 2.68997 
445 1 1 -0.0181359 -0.0138493 0.00995276 0 0 0 1.66682e-06 2.25033e-07 3.15883e-06 3.69974e-06 -1.87584e-06 -3.92136e-07 -0.000261846 -0.000170442 0.000366971 0.004 382.194 3.52061 
783 1 1 0.00485897 -0.00860656 0.0099377 0 0 0 1.93062e-06 9.76735e-07 3.56138e-06 2.87281e-06 -1.30402e-06 -2.34832e-06 -0.000185527 0.000322191 -6.15029e-05 0.004 602.135 -1.52194 
615 1 1 -0.0350999 -0.000758706 0.00955182 0 0 0 4.83805e-08 -2.27383e-07 8.57038e-08 6.33996e-07 -1.33293e-06 1.1322e-08 2.4663e-05 -3.58857e-05 -4.82202e-05 0.004 315.97 1.85955 
476 1 1 -0.0459522 0.00262139 0.00988978 0 0 0 -5.75226e-08 8.29426e-08 -6.50592e-08 1.11928e-07 -3.3121e-07 1.33319e-07 -7.38009e-07 6.76843e-07 5.11844e-06 0.004 304.919 0.986012 
16 1 1 -0.0210456 0.00169439 0.00830926 0 0 0 7.16311e-07 -6.71809e-07 8.92276e-07 1.00212e-06 -1.44467e-06 -7.47593e-07 -5.10766e-05 1.45094e-05 -1.45707e-05 0.004 363.519 3.37706 
303 1 1 0.0459492 0.00350463 0.00962657 0 0 0 6.14773e-07 7.80712e-07 -6.13859e-07 5.68951e-07 9.24661e-07 -8.16353e-07 -3.88719e-06 -0.000106047 -8.30119e-05 0.004 794.054 -1.12582 
523 1 1 -0.0389797 0.00803081 0.0093286 0 0 0 1.8704e-08 -2.75479e-08 -2.04309e-07 1.50059e-07 -1.03112e-06 1.22777e-07 -1.23441e-05 -3.79358e-05 -5.86973e-06 0.004 311.215 1.57992 
704 1 1 -0.010798 0.00519223 0.00743861 0 0 0 1.2434e-06 -1.21221e-06 1.32113e-06 1.06532e-06 -1.23183e-06 -1.63901e-06 -0.000133893 -8.32923e-05 8.60597e-05 0.004 435.628 2.98532 
454 1 1 0.00101179 0.00715932 0.00933957 0 0 0 1.51309e-06 -1.19352e-06 1.20545e-06 1.76594e-06 -3.25677e-07 -1.87498e-06 0.000110785 3.23847e-05 0.000142339 0.004 554.508 -0.0336675 
31 1 1 0.0102164 0.00547591 0.00832592 0 0 0 1.63458e-06 -4.5029e-07 6.65814e-07 2.30576e-06 4.50561e-07 -2.32803e-06 -0.000163455 0.000148962 0.000114895 0.004 649.03 -2.65303 
135 1 1 0.0188885 0.00749169 0.00960785 0 0 0 2.53721e-06 -4.33374e-07 -1.69102e-07 1.29514e-06 9.61333e-07 -8.08026e-07 0.000152031 0.000151519 0.000428491 0.004 733.659 -3.96454 
712 1 1 0.0281139 0.00743265 0.00998857 0 0 0 2.14548e-06 1.38259e-06 -8.45261e-07 1.66299e-06 1.74544e-06 -2.01401e-06 0.000127024 0.00023543 0.00013437 0.004 765.121 -3.05023 
210 1 1 0.0394934 0.00814606 0.00989881 0 0 0 8.83438e-07 1.05294e-06 -1.04156e-06 1.29288e-06 1.09928e-06 -1.632e-06 -7.91795e-05 6.6965e-05 -6.99998e-05 0.004 789.539 -1.5766 
651 1 1 -0.0437987 0.0143398 0.00823566 0 0 0 6.70042e-08 -3.02783e-09 -3.38858e-08 1.06318e-07 -3.46256e-07 1.64832e-07 1.93002e-05 -2.08294e-05 -1.7839e-05 0.004 308.259 1.40764 
621 1 1 0.0437182 0.0147846 0.00900766 0 0 0 5.9297e-07 3.59434e-07 -6.12664e-07 6.32923e-07 5.1997e-07 -9.51255e-07 0.000112279 -5.78405e-05 -3.34611e-07 0.004 788.383 -1.69463 
726 1 1 -0.0257657 0.0199972 0.00692824 0 0 0 5.00746e-07 -4.43289e-07 3.61059e-07 5.65755e-08 -6.04746e-07 5.70681e-09 1.7302e-06 -1.19286e-05 -3.34461e-05 0.004 340.799 3.3395 
230 1 1 -0.00847467 0.024595 0.00973776 0 0 0 1.5214e-06 -2.025e-06 1.1696e-06 -2.5672e-07 -6.19094e-07 -1.28427e-06 0.000244976 -5.39135e-06 4.61561e-05 0.004 473.481 2.4106 
320 1 1 -0.00171266 0.020405 0.00979386 0 0 0 1.52214e-06 -1.85163e-06 1.00239e-06 1.55591e-07 3.4956e-07 -1.79307e-06 0.000114569 6.53965e-07 -1.06151e-05 0.004 532.337 0.885181 
7 1 1 0.0129211 0.0224303 0.00918519 0 0 0 1.2165e-06 -8.98697e-07 3.51449e-07 4.86362e-07 1.10221e-06 -1.60432e-06 -3.53815e-05 8.19385e-05 -2.86019e-05 0.004 673.606 -3.15136 
83 1 1 0.0214164 0.0239651 0.00888427 0 0 0 8.36099e-07 -1.95974e-07 -2.94423e-07 4.96562e-07 5.6635e-07 -1.64833e-06 -6.31974e-05 -4.21346e-05 -1.87989e-05 0.004 736.334 -3.66339 
747 1 1 -0.0337321 0.0313835 0.00974072 0 0 0 3.90577e-07 -2.28506e-07 2.24902e-07 -1.60776e-07 -4.41685e-07 4.57413e-07 1.65055e-05 -6.64003e-06 -4.6698e-06 0.004 328.972 3.05426 
51 1 1 -0.0226192 0.0329654 0.00703451 0 0 0 4.18166e-07 -2.86034e-07 3.64052e-07 -7.06595e-07 -4.48799e-07 -3.76731e-08 -3.19106e-05 -5.27665e-05 1.57842e-05 0.004 349.197 4.09135 
116 1 1 -0.00940735 0.0391203 0.00809817 0 0 0 6.46476e-07 -9.98448e-07 9.95887e-07 -2.1132e-07 -1.13899e-08 -3.33679e-07 -3.46342e-05 3.84817e-05 7.81789e-05 0.004 474.709 2.45837 
205 1 1 -0.00056046 -0.0460776 0.0110171 0 0 0 1.14736e-06 1.47602e-06 2.06616e-06 7.01388e-07 7.92134e-08 -1.99064e-07 0.00041139 0.000121441 -0.000273797 0.004 548.829 0.508976 
836 1 1 0.00737985 -0.0454688 0.0106611 0 0 0 9.4875e-07 1.38416e-06 1.95627e-06 8.29264e-07 1.50471e-07 3.2407e-08 0.000167713 -3.54399e-05 -0.000148209 0.004 604.621 -1.85316 
486 1 1 -0.0156916 -0.0402432 0.0103352 0 0 0 1.63551e-06 9.01687e-07 1.39592e-06 1.32091e-06 2.57491e-07 8.25658e-07 0.000167137 -0.000123714 0.000332569 0.004 403.631 4.47181 
311 1 1 -0.00836811 -0.0439882 0.0106791 0 0 0 9.07494e-07 2.00838e-06 2.27438e-06 1.49887e-06 4.92201e-07 3.6655e-07 -0.000389132 0.000235515 -0.000219316 0.004 455.987 4.56381 
447 1 1 0.0180551 -0.0423881 0.0118323 0 0 0 7.0037e-07 1.06079e-06 1.45842e-06 8.26079e-07 -2.29725e-07 -4.12147e-07 0.000140306 0.000354243 -0.000208491 0.004 680.617 -4.06055 
538 1 1 -0.0295743 -0.035351 0.0149849 0 0 0 7.80782e-07 5.9518e-07 1.11207e-06 1.26072e-06 -8.90808e-08 1.61065e-07 6.40403e-05 -0.000120934 5.36986e-05 0.004 339.761 3.57231 
279 1 1 0.011155 -0.0385417 0.0114152 0 0 0 1.5617e-06 2.49583e-06 3.97057e-06 1.82466e-06 -2.14788e-07 -8.26888e-08 -3.967e-05 0.000248716 -6.2322e-05 0.004 641.395 -2.91923 
110 1 1 0.0250464 -0.0386627 0.0117241 0 0 0 4.53771e-07 7.37851e-07 1.09448e-06 6.15686e-07 -3.95813e-07 -2.09483e-07 0.000113255 -4.95644e-05 -5.60849e-05 0.004 721.306 -4.36074 
188 1 1 -0.0179041 -0.0321007 0.0101564 0 0 0 1.41323e-06 1.8677e-06 3.37452e-06 2.43288e-06 -1.52154e-07 9.27223e-07 -8.97071e-05 4.1811e-05 -9.67453e-05 0.004 391.115 3.93054 
810 1 1 -0.0102601 -0.034451 0.0102036 0 0 0 1.71475e-06 2.38305e-06 3.79277e-06 2.45333e-06 -3.44992e-07 6.36559e-07 -0.000135446 -8.38457e-05 5.22205e-05 0.004 446.033 3.27293 
412 1 1 -0.00316746 -0.0328806 0.0133527 0 0 0 2.2441e-06 3.71496e-06 6.48494e-06 3.28567e-06 -4.66867e-07 7.18755e-07 -5.89607e-05 -0.000113007 3.6442e-05 0.004 507.441 1.50552 
545 1 1 0.00452052 -0.0343088 0.0121941 0 0 0 1.88519e-06 3.19113e-06 5.53493e-06 2.56392e-06 -2.72258e-07 4.12252e-07 1.29459e-05 9.38109e-05 -1.93422e-05 0.004 591.789 -1.26889 