ITEM: TIMESTEP
27200
ITEM: NUMBER OF ATOMS
891
ITEM: BOX BOUNDS mm mm mm
-0.05 0.05
-0.05 0.05
0 0.15
ITEM: ATOMS id type type x y z ix iy iz vx vy vz fx fy fz omegax omegay omegaz radius f_Temp[0] f_heatFlux[0] 
199 1 1 -0.00444378 -0.0458158 0.00397435 0 0 0 1.4014e-06 -1.32771e-06 -1.9426e-06 4.38455e-07 1.07026e-06 -3.25501e-07 -0.000154618 0.000210169 -0.000356327 0.004 445.536 6.21081 
873 1 1 -0.0201484 -0.0414789 0.0039016 0 0 0 3.03941e-07 -1.01241e-06 -5.76798e-07 4.62064e-07 9.00813e-11 -1.79487e-07 -5.18454e-05 4.70813e-05 -0.00011112 0.004 341.48 6.97378 
485 1 1 -0.0126796 -0.0442534 0.00397264 0 0 0 1.16087e-06 -1.2871e-06 -1.17936e-06 4.63093e-07 1.94099e-07 -1.59577e-07 -1.71401e-05 0.000461713 -0.000313208 0.004 365.849 9.20681 
850 1 1 0.00335642 -0.0441759 0.00394115 0 0 0 6.98792e-07 -2.56647e-06 -2.30141e-06 5.82868e-07 8.36431e-07 -9.91027e-08 0.000370372 -0.000109857 0.000385231 0.004 556.526 -2.54193 
186 1 1 0.0114401 -0.0445988 0.00392827 0 0 0 6.57875e-07 -1.40906e-06 -1.55245e-06 2.37797e-07 6.97795e-07 1.19845e-07 0.00010936 -4.13047e-05 -2.77115e-05 0.004 697.94 -8.73272 
560 1 1 0.018969 -0.0420006 0.00394676 0 0 0 1.13418e-06 -1.29839e-06 -1.39568e-06 3.49646e-07 6.16376e-07 1.09353e-07 3.97171e-05 6.51202e-06 4.12721e-05 0.004 737.497 -8.05257 
102 1 1 -0.0147501 -0.0357331 0.00386312 0 0 0 1.11375e-06 -3.10052e-06 -2.76725e-06 7.5506e-07 -1.06787e-07 -1.0425e-06 0.000288546 0.0002437 -0.000250263 0.004 372.053 7.23311 
88 1 1 -0.00730762 -0.0383837 0.00392727 0 0 0 1.12544e-06 -2.49603e-06 -2.65065e-06 8.96477e-07 6.53722e-07 -7.11651e-07 0.000277177 -8.58007e-05 0.000321331 0.004 426.989 6.71511 
776 1 1 0.00520384 -0.0354368 0.00395024 0 0 0 1.77584e-06 -3.80126e-06 -3.32835e-06 1.33646e-06 2.18996e-06 2.86289e-07 0.000638259 -4.31286e-05 0.000205563 0.004 620.865 -2.92755 
410 1 1 0.0130236 -0.0368131 0.00392572 0 0 0 1.93641e-06 -2.54095e-06 -3.02669e-06 9.87131e-07 1.39236e-06 2.88543e-07 6.17605e-05 0.000155644 -4.92793e-05 0.004 700.414 -7.24974 
282 1 1 0.025876 -0.0381319 0.00388527 0 0 0 1.44517e-06 -1.52316e-06 -1.5614e-06 4.67667e-08 1.19364e-06 4.33428e-07 6.01472e-06 0.000202676 -0.000171432 0.004 773.426 -5.56366 
682 1 1 -0.0302016 -0.0348779 0.00393465 0 0 0 4.47279e-07 -4.92841e-07 -2.50025e-07 3.37957e-07 -2.89891e-07 -1.97112e-07 -4.69712e-06 -7.33887e-06 -0.000129572 0.004 312.523 3.19994 
251 1 1 -0.0224189 -0.0338476 0.00392333 0 0 0 1.03013e-06 -1.6746e-06 -1.3105e-06 5.59609e-07 -2.93309e-07 -5.99744e-07 0.000116593 0.00034165 -0.000198287 0.004 333.649 5.772 
770 1 1 -0.00204754 -0.0321408 0.00393965 0 0 0 2.14675e-06 -4.14169e-06 -2.97265e-06 1.46961e-06 1.79361e-06 -6.6798e-07 0.000482753 0.000206779 -0.000302129 0.004 537.247 1.65087 
883 1 1 0.018166 -0.0307536 0.00390023 0 0 0 3.01917e-06 -3.89872e-06 -5.02203e-06 9.88453e-07 2.82493e-06 5.5991e-07 0.000643971 0.000804216 -0.000108979 0.004 743.265 -6.71044 
838 1 1 0.0320336 -0.033109 0.00396072 0 0 0 2.32717e-06 -1.49685e-06 -3.20375e-06 5.25598e-08 9.9632e-07 5.36489e-07 -0.000388342 0.000106133 -0.000119302 0.004 788.66 -3.28654 
617 1 1 -0.0372521 -0.0271215 0.00391646 0 0 0 7.57153e-07 -1.40531e-07 2.76554e-07 3.97918e-07 -4.22719e-07 -1.12944e-07 8.0292e-05 1.49468e-05 -0.000112961 0.004 302.932 1.17045 
824 1 1 -0.0292998 -0.0270298 0.00392985 0 0 0 1.78583e-06 -9.07793e-07 -4.0981e-07 9.7228e-07 -3.52223e-07 -8.05165e-07 0.000125418 0.000394748 -0.000165944 0.004 307.835 2.36302 
571 1 1 -0.0202615 -0.0262215 0.00393286 0 0 0 2.52079e-06 -2.623e-06 -2.22577e-06 1.18051e-06 -4.1577e-07 -1.58317e-06 0.000220005 0.000555066 -0.000351316 0.004 330.655 5.66807 
861 1 1 -0.00959295 -0.0297304 0.003897 0 0 0 2.20054e-06 -4.14094e-06 -3.80959e-06 1.41204e-06 5.19485e-08 -1.71806e-06 0.000344021 0.00028854 6.05651e-05 0.004 421.193 7.12277 
434 1 1 0.0103455 -0.0293807 0.00393742 0 0 0 2.60102e-06 -4.04479e-06 -3.48319e-06 1.71208e-06 2.12908e-06 2.61615e-07 0.000294777 -4.18944e-05 7.14708e-05 0.004 682.873 -6.04735 
103 1 1 0.0311547 -0.0252347 0.00394363 0 0 0 3.05083e-06 -2.19088e-06 -4.74831e-06 2.51995e-07 1.38275e-06 7.29201e-07 0.000268407 -0.000233313 0.000253808 0.004 790.642 -2.67927 
769 1 1 -0.041344 -0.0202818 0.0039823 0 0 0 1.00686e-06 7.29386e-09 8.03868e-07 2.89492e-07 -3.86353e-07 -1.47397e-07 0.000167803 -7.8009e-05 -7.97289e-05 0.004 301.228 0.585698 
94 1 1 -0.0333714 -0.0202163 0.0039437 0 0 0 2.27804e-06 -4.37604e-07 6.74613e-07 5.97033e-07 -4.98455e-07 -6.86991e-07 4.27529e-05 0.00028254 -0.000145684 0.004 304.374 1.48643 
40 1 1 -0.025401 -0.0201463 0.00391763 0 0 0 3.20924e-06 -1.42441e-06 -4.85616e-07 9.14146e-07 -3.79947e-07 -1.39501e-06 0.000246422 0.00050938 -0.000119771 0.004 313.914 3.34168 
19 1 1 -0.00865073 -0.0218804 0.00393967 0 0 0 3.35938e-06 -4.29965e-06 -3.29516e-06 1.67326e-06 1.69006e-07 -1.79853e-06 0.000458121 0.000837118 -0.000356459 0.004 422.47 7.61439 
442 1 1 -0.000436977 -0.0218499 0.00393584 0 0 0 3.30772e-06 -5.41635e-06 -5.13313e-06 2.23034e-06 2.02046e-06 -1.82302e-06 0.000893046 0.000442847 -0.00011202 0.004 546.111 2.42569 
259 1 1 0.0075319 -0.0220001 0.00392511 0 0 0 2.70923e-06 -5.24639e-06 -3.24104e-06 1.91328e-06 3.09342e-06 -4.15751e-07 0.000473446 -0.000194831 0.000112637 0.004 660.973 -4.89015 
512 1 1 0.0153883 -0.0232356 0.00397834 0 0 0 3.6281e-06 -4.13171e-06 -3.31666e-06 9.86317e-07 3.64989e-06 1.29007e-06 0.000314574 0.000681397 -0.000152477 0.004 733.587 -6.1409 
470 1 1 0.0232616 -0.0243589 0.00390815 0 0 0 3.70335e-06 -4.42931e-06 -6.42592e-06 9.66437e-07 3.78898e-06 1.62617e-06 0.000870753 0.000453516 5.70135e-05 0.004 774.148 -4.86267 
451 1 1 0.0390293 -0.0244875 0.00392048 0 0 0 2.11645e-06 -2.23889e-07 -1.16621e-06 3.60069e-08 6.44452e-07 3.11966e-07 -2.04911e-05 4.38594e-05 1.67046e-05 0.004 796.596 -1.29055 
531 1 1 -0.0164596 -0.0192004 0.00396126 0 0 0 4.30847e-06 -3.4227e-06 -1.14488e-06 1.45732e-06 -4.53375e-07 -1.1769e-06 0.00095179 0.000858279 -0.000206688 0.004 337.783 6.29459 
229 1 1 0.0202059 -0.0169136 0.00386874 0 0 0 5.28469e-06 -4.91767e-06 -7.20557e-06 1.24405e-06 3.88483e-06 3.35763e-06 0.000514712 0.0006292 -0.000118346 0.004 763.466 -5.51859 
734 1 1 0.0280521 -0.017942 0.00394397 0 0 0 3.65837e-06 -3.26418e-06 -6.15763e-06 3.12777e-07 2.08743e-06 1.42841e-06 -3.50746e-06 -7.79242e-05 2.90859e-05 0.004 788.427 -2.81277 
635 1 1 0.0425981 -0.0174495 0.00392191 0 0 0 2.29029e-06 -2.7113e-07 -1.74495e-06 -6.56475e-07 3.86953e-07 5.23807e-07 -6.804e-05 0.000608879 -8.78054e-05 0.004 799.13 -0.422607 
87 1 1 -0.0448224 -0.0104639 0.0039142 0 0 0 9.55883e-07 2.18978e-09 6.67077e-07 -1.84851e-07 -2.77969e-07 -2.32436e-07 -5.63939e-05 7.71671e-05 3.73584e-05 0.004 300.36 0.20276 
406 1 1 -0.0373951 -0.013391 0.00396017 0 0 0 2.0985e-06 2.43265e-07 1.0635e-06 1.36494e-07 -9.88813e-07 -5.58685e-07 -9.06024e-05 0.000325791 -2.11079e-05 0.004 301.302 0.58532 
224 1 1 -0.0230581 -0.0126019 0.00387963 0 0 0 3.88359e-06 -1.44629e-06 1.51425e-07 2.61256e-07 -7.98118e-07 -1.90802e-06 0.000383425 0.00084 -3.34763e-05 0.004 324.046 4.32178 
751 1 1 -0.0102997 -0.0141545 0.00396946 0 0 0 4.31473e-06 -3.42924e-06 -2.21653e-06 9.90148e-07 -1.98131e-07 -1.30792e-06 7.36099e-05 0.000502482 5.08125e-05 0.004 398.346 6.96434 
622 1 1 -0.00273389 -0.0117409 0.00388524 0 0 0 4.81253e-06 -4.60397e-06 -5.62706e-06 1.01793e-06 9.61097e-07 -1.39743e-06 0.000996265 0.000880999 -0.000264479 0.004 494.612 2.72516 
128 1 1 0.00951066 -0.010685 0.00388458 0 0 0 6.19864e-06 -6.42063e-06 -7.27654e-06 1.3586e-06 2.55594e-06 2.00255e-06 0.00111721 0.000692792 0.000454868 0.004 693.918 -6.50801 
68 1 1 0.0262808 -0.010211 0.00395438 0 0 0 5.76161e-06 -3.85772e-06 -6.0413e-06 7.46832e-08 2.50724e-06 1.96812e-06 0.000661678 0.000558867 -0.000152697 0.004 790.615 -2.58553 
791 1 1 0.0340945 -0.0118532 0.003928 0 0 0 3.52251e-06 -1.53098e-06 -3.89274e-06 -3.61109e-07 1.42701e-06 2.07376e-06 -0.00048939 0.000514066 -0.000474685 0.004 797.707 -0.912804 
354 1 1 -0.0380748 -0.00550395 0.00392043 0 0 0 3.38614e-06 1.76397e-07 2.3315e-06 -1.38757e-06 -8.73001e-07 -9.37794e-07 0.000145876 0.000602507 -0.000233469 0.004 301.227 0.536213 
725 1 1 -0.0304901 -0.0080053 0.00392521 0 0 0 3.82569e-06 -8.1584e-07 7.81858e-07 -7.11171e-07 -3.1614e-07 -7.13641e-07 0.000168851 0.000708493 -1.20776e-05 0.004 303.997 1.36705 
353 1 1 -0.0161288 -0.00879808 0.00391145 0 0 0 3.89843e-06 -2.33173e-06 -8.61563e-07 -2.4589e-07 -6.89304e-07 -1.61488e-06 0.000347318 0.000295937 -0.000215661 0.004 357.482 6.2514 
391 1 1 -0.00857661 -0.00639747 0.00391358 0 0 0 4.21521e-06 -2.75972e-06 -1.69264e-06 3.00182e-07 -5.95275e-07 -1.64183e-06 0.000143945 0.000479307 -7.69685e-06 0.004 422.649 6.30612 
683 1 1 0.0173533 -0.00945629 0.00390985 0 0 0 5.97712e-06 -4.17463e-06 -6.35708e-06 9.31694e-07 2.82019e-06 1.82019e-06 0.000804829 0.000541151 -5.0007e-05 0.004 755.525 -5.99529 
690 1 1 0.0385537 -0.00520143 0.00390021 0 0 0 3.01263e-06 3.52051e-07 -5.71828e-06 -5.45175e-07 1.23638e-06 2.10119e-06 -0.000433474 0.000348588 -0.000144331 0.004 799.078 -0.413521 
10 1 1 0.0449635 -0.00990888 0.00397399 0 0 0 1.35743e-06 -4.66349e-07 -1.70148e-06 -4.50174e-07 4.71311e-07 7.1907e-07 0.000251581 -0.00023831 5.87219e-05 0.004 799.671 -0.186138 
402 1 1 -0.0460169 -0.00264172 0.00392182 0 0 0 1.88476e-06 -1.62548e-07 1.59895e-06 -8.57721e-07 -2.79364e-07 -4.46172e-07 0.000192598 6.11689e-05 -0.000167444 0.004 300.496 0.247854 
761 1 1 -0.0294744 -0.000168326 0.00392564 0 0 0 4.49804e-06 -8.36229e-07 3.00903e-06 -1.88526e-06 -9.405e-07 -1.52409e-06 0.000218371 0.000691822 -3.15939e-05 0.004 308.324 2.25051 
293 1 1 -0.0229324 -0.00466871 0.00395951 0 0 0 4.45632e-06 -1.09332e-06 1.03211e-06 -1.26966e-06 -1.18422e-06 -1.36477e-06 2.78651e-05 0.000537665 -0.000223178 0.004 322.004 4.34244 
384 1 1 -0.0147868 -0.000833513 0.0039815 0 0 0 0.000333904 -0.000724947 -5.05069e-08 -5.96793e-10 -2.34914e-09 -5.47932e-06 0.181656 0.08367 0.226562 0.004 301.492 0 
378 1 1 0.00130609 -0.00490406 0.00392906 0 0 0 6.15655e-06 -3.31052e-06 -3.04517e-06 1.28317e-08 1.17001e-06 -7.56503e-08 0.000809589 0.00138744 0.000345812 0.004 561.287 -1.78149 
390 1 1 0.0103707 -0.0027653 0.00396885 0 0 0 5.02548e-06 -5.50377e-06 -3.85707e-06 -1.02709e-06 1.69326e-06 1.25372e-06 0.000428692 0.000734998 -0.000344654 0.004 719.621 -8.26341 
411 1 1 0.0223603 -0.00329286 0.00397624 0 0 0 5.24613e-06 -3.2448e-06 -7.05356e-06 9.62684e-07 1.54125e-06 2.48355e-06 -0.000488963 0.000893811 0.000224608 0.004 783.163 -3.88668 
342 1 1 0.0307348 -0.00361666 0.00397528 0 0 0 3.53644e-06 -2.17421e-06 -3.25279e-06 -1.20816e-06 1.68493e-06 7.13864e-07 0.000264978 0.000484756 0.000540992 0.004 797.535 -0.963406 
262 1 1 0.0460221 -0.00206505 0.00395832 0 0 0 1.93629e-06 3.62412e-07 -1.65541e-06 -4.08359e-07 1.87739e-07 6.6752e-07 -0.000485274 0.000163997 -0.000369173 0.004 799.695 -0.17452 
261 1 1 -0.0398214 0.00224601 0.00393477 0 0 0 3.52433e-06 -1.04688e-07 3.31136e-06 -1.57475e-06 -6.95456e-07 -9.6582e-07 0.000119538 0.000152759 9.67855e-05 0.004 301.58 0.611101 
666 1 1 -0.00454676 0.000451438 0.00395605 0 0 0 4.41711e-06 -2.53699e-06 -1.27674e-06 -9.11213e-07 -5.01695e-07 -1.82395e-06 1.56299e-06 0.000148902 -2.55593e-05 0.004 475.112 4.49271 
815 1 1 0.00434368 0.00243561 0.00392711 0 0 0 6.8125e-06 -3.1503e-06 -3.13568e-06 -1.28174e-06 1.70812e-07 -7.09025e-07 -1.70887e-05 0.00127154 -0.000506913 0.004 630.822 -5.67033 
306 1 1 0.01637 0.00247667 0.00395808 0 0 0 4.55768e-06 -5.33343e-06 -5.0611e-06 5.0527e-08 7.07448e-07 1.67676e-06 0.00144173 0.00104697 0.000801348 0.004 766.423 -6.25375 
178 1 1 0.0241042 0.00444176 0.00386113 0 0 0 4.21734e-06 -2.33073e-06 -7.57677e-06 -2.40507e-07 8.35944e-07 2.8358e-06 0.000916032 0.00077663 -7.30063e-06 0.004 784.591 -3.68435 
862 1 1 0.0320656 0.00423367 0.00393096 0 0 0 3.40836e-06 -2.18997e-06 -6.08844e-06 -6.97557e-07 1.321e-06 2.05393e-06 -9.21379e-05 -0.000181918 6.30729e-05 0.004 795.79 -1.43018 
661 1 1 0.0398756 0.0029147 0.00394679 0 0 0 3.16738e-06 5.07256e-07 -3.70368e-06 -8.09418e-07 -2.37202e-07 1.45988e-06 -0.000642858 0.000232679 0.000146701 0.004 798.972 -0.460619 
677 1 1 -0.0453782 0.0078854 0.00393642 0 0 0 1.82865e-06 -5.33036e-08 1.70355e-06 -8.15429e-07 -3.92856e-07 -4.17355e-07 -0.000114624 4.62745e-05 -8.63463e-06 0.004 300.487 0.24912 
12 1 1 -0.0333161 0.00671961 0.00393697 0 0 0 4.19703e-06 -3.70081e-07 3.7657e-06 -1.79941e-06 -1.13895e-06 -1.01482e-06 -0.00021422 0.000336183 4.21427e-05 0.004 305.314 1.57305 
420 1 1 -0.0254 0.00664839 0.00392688 0 0 0 4.76689e-06 -7.01478e-07 3.55054e-06 -1.94948e-06 -1.64989e-06 -1.48098e-06 0.000140449 0.000216443 4.80542e-05 0.004 317.394 3.55819 
654 1 1 -0.0175134 0.00720949 0.00387213 0 0 0 5.67741e-06 -1.38587e-06 2.59836e-06 -2.3936e-06 -1.75348e-06 -2.02685e-06 0.000227915 0.000776742 -0.000187178 0.004 346.708 6.09483 
145 1 1 -0.00454407 0.00836539 0.00386312 0 0 0 6.00508e-06 -2.7498e-06 -4.28316e-08 -2.09038e-06 -1.29275e-06 -2.20301e-06 0.000646485 0.00114903 -0.00025366 0.004 471.217 5.12183 
624 1 1 0.0451449 0.00890653 0.00390656 0 0 0 3.36317e-06 8.07329e-07 -3.0659e-06 -1.07579e-06 6.73754e-08 1.01096e-06 -1.08672e-05 0.000575672 3.58977e-05 0.004 799.517 -0.253801 
613 1 1 -0.0372991 0.0135339 0.00384344 0 0 0 3.99379e-06 -1.17174e-07 3.67742e-06 -1.7975e-06 -1.03167e-06 -9.63034e-07 2.97227e-05 0.000705978 -0.000204625 0.004 302.127 0.813266 
265 1 1 -0.0293062 0.0135429 0.00396372 0 0 0 3.87106e-06 -5.39436e-07 2.93623e-06 -1.78872e-06 -1.38399e-06 -7.59014e-07 5.5993e-05 -1.53965e-05 -8.10775e-05 0.004 308.654 2.41429 
273 1 1 -0.0213694 0.0141274 0.00392939 0 0 0 4.41414e-06 -1.00626e-06 3.43521e-06 -2.03916e-06 -1.57406e-06 -1.11595e-06 -0.000155432 0.000559215 0.000193148 0.004 322.597 4.56533 
492 1 1 -0.01145 0.0123713 0.0039808 0 0 0 5.20041e-06 -2.06718e-06 2.50477e-06 -2.6385e-06 -1.28164e-06 -2.11256e-06 0.00046968 0.000443692 0.000224707 0.004 385.531 8.96716 
234 1 1 0.00585285 0.010393 0.0039289 0 0 0 6.04124e-06 -2.30928e-06 -2.47244e-06 -1.95854e-06 -7.40286e-07 -3.16762e-07 0.000610751 0.000860786 1.67211e-05 0.004 616.721 -3.53195 
160 1 1 0.0142843 0.0106356 0.00390957 0 0 0 5.65147e-06 -1.92138e-06 -3.89013e-06 -1.72859e-06 -3.60054e-07 4.58734e-07 0.000513904 0.000893449 -0.000375185 0.004 728.764 -6.67431 
484 1 1 0.0220893 0.0120738 0.00390118 0 0 0 3.89211e-06 -1.75659e-06 -4.1985e-06 -1.55747e-06 -5.62681e-07 1.68928e-06 0.000176735 0.000159525 0.000235465 0.004 774.074 -4.55069 
743 1 1 0.0300184 0.0126216 0.00398126 0 0 0 3.01145e-06 1.49513e-06 -1.74731e-06 -1.21206e-06 -1.61567e-06 6.60811e-07 -0.000310599 -8.82663e-05 0.000533174 0.004 790.597 -2.49742 
514 1 1 0.0379537 0.0130186 0.00386905 0 0 0 3.47916e-06 1.17282e-06 -4.44312e-06 -1.45132e-06 -5.1294e-07 1.6484e-06 -0.000365502 0.000798368 -0.000633193 0.004 797.424 -0.94423 
530 1 1 -0.0159002 0.0198648 0.00392796 0 0 0 4.66174e-06 -1.79774e-06 3.29831e-06 -2.56187e-06 -7.78102e-07 -1.33326e-06 0.000206041 0.000527933 -7.98854e-05 0.004 343.764 6.54148 
227 1 1 -0.00736502 0.0192084 0.00396596 0 0 0 4.71215e-06 -1.78661e-06 3.04244e-06 -2.72457e-06 -1.75868e-06 -2.13591e-06 0.000394943 0.000784185 -0.000130006 0.004 431.906 8.27596 
392 1 1 -0.000498623 0.0151513 0.00394446 0 0 0 5.26326e-06 -2.35188e-06 4.89659e-07 -2.32999e-06 -1.47269e-06 -1.36643e-06 0.000326183 0.000617564 0.000320665 0.004 521.966 2.98251 
493 1 1 0.0098584 0.0172532 0.00394647 0 0 0 4.65599e-06 -1.31181e-06 -1.61108e-06 -2.19901e-06 -9.32157e-07 4.90001e-08 3.28517e-05 0.000422261 0.000289181 0.004 671.685 -5.49445 
34 1 1 0.0176357 0.0187852 0.00394098 0 0 0 3.62627e-06 -5.9873e-07 -2.95146e-06 -1.93645e-06 -6.94093e-07 1.2352e-06 0.000123122 0.000428448 -8.81453e-05 0.004 739.475 -6.16804 
206 1 1 0.0255397 0.0192353 0.00396992 0 0 0 2.7115e-06 -4.28389e-07 -2.60698e-06 -1.44784e-06 -6.91806e-07 1.39257e-06 2.77432e-05 -0.000261747 3.81822e-05 0.004 778.441 -3.97912 
104 1 1 0.0334175 0.0199346 0.00389649 0 0 0 3.37616e-06 5.4579e-07 -3.35042e-06 -1.61245e-06 -2.66796e-07 1.44318e-06 -0.000144164 0.000754546 0.000172572 0.004 792.824 -2.01636 
809 1 1 -0.0412058 0.0204949 0.00395498 0 0 0 1.73145e-06 1.47647e-07 1.79652e-06 -8.82645e-07 -5.90136e-07 -4.26819e-07 -0.000273451 5.77298e-05 0.000241917 0.004 300.801 0.409681 
773 1 1 -0.0331523 0.0204531 0.00393523 0 0 0 3.89498e-06 -7.76827e-07 4.05473e-06 -2.03692e-06 -1.17387e-06 -1.26596e-06 -0.000116148 0.000702009 0.000231369 0.004 304.532 1.5845 
792 1 1 0.00347678 0.0219736 0.00392105 0 0 0 4.1531e-06 -1.80076e-06 8.48795e-07 -2.64128e-06 -1.66558e-06 -1.12844e-06 0.000343332 0.00051028 -9.76443e-05 0.004 592.279 -1.71034 
718 1 1 0.0413199 0.0203659 0.00392988 0 0 0 2.10373e-06 5.72886e-07 -2.38355e-06 -9.09016e-07 -7.6089e-09 8.98225e-07 1.39802e-05 -5.01163e-05 8.43642e-05 0.004 797.673 -0.910312 
101 1 1 -0.0371146 0.0272995 0.00390402 0 0 0 2.36815e-06 -8.4786e-07 2.13549e-06 -1.20703e-06 -4.52635e-07 -5.75041e-07 7.4262e-05 0.000246968 -9.91857e-05 0.004 302.532 1.04237 
246 1 1 -0.0290567 0.0272807 0.00398271 0 0 0 1.80655e-06 -5.66476e-07 2.14736e-06 -1.50302e-06 -4.70726e-07 -1.08154e-06 -0.000111166 -0.000259076 0.000164266 0.004 306.105 1.90865 
331 1 1 -0.0212281 0.0257799 0.00390019 0 0 0 3.40929e-06 -1.20302e-06 4.1191e-06 -2.48218e-06 -7.75341e-07 -2.31422e-06 0.000137667 0.000525243 -3.54876e-05 0.004 324.168 4.44823 
846 1 1 -0.0134708 0.0274168 0.0039748 0 0 0 3.79218e-06 -1.71782e-06 2.85001e-06 -2.64637e-06 -6.04576e-07 -1.32905e-06 0.000428317 0.000463307 0.000123059 0.004 367.083 6.66382 
348 1 1 -0.00329915 0.0260612 0.00393374 0 0 0 4.42975e-06 -1.50876e-06 2.61596e-06 -2.31674e-06 -1.82864e-06 -1.22795e-06 5.0064e-06 0.000845035 0.000294588 0.004 498.624 3.88314 
786 1 1 0.00840354 0.0281551 0.00389684 0 0 0 3.07299e-06 -1.50915e-06 6.18261e-07 -2.35114e-06 -1.61788e-06 5.85545e-07 0.000328329 0.000495071 0.000208506 0.004 654.829 -5.35599 
316 1 1 0.0162833 0.0272928 0.00390629 0 0 0 2.61418e-06 -3.96904e-07 -8.36804e-07 -1.92627e-06 -6.17315e-07 1.23711e-06 0.000193644 0.000256488 0.000146377 0.004 737.5 -6.65122 
495 1 1 0.0288861 0.0264618 0.00396715 0 0 0 2.38921e-06 -1.43292e-08 -1.85506e-06 -1.46485e-06 -2.1668e-07 1.18715e-06 -0.000117856 0.000141898 -4.37925e-05 0.004 788.723 -3.0234 
863 1 1 0.0367263 0.0277633 0.00392936 0 0 0 1.59237e-06 2.35532e-07 -1.25239e-06 -9.56119e-07 -3.10384e-08 6.30779e-07 2.35359e-05 0.000176854 0.000199147 0.004 796.553 -1.32641 
511 1 1 -0.00761834 0.0327132 0.00388553 0 0 0 3.73626e-06 -1.88045e-06 3.78665e-06 -1.92954e-06 -1.43692e-06 -7.34663e-07 0.0004012 0.000506456 -5.31926e-05 0.004 454.884 5.78068 
722 1 1 0.00164034 0.0322875 0.00396635 0 0 0 3.02771e-06 -1.1041e-06 1.57705e-06 -2.14573e-06 -1.77806e-06 6.49226e-08 0.00015633 9.07405e-05 -0.000243081 0.004 572.227 -1.56008 
2 1 1 0.0229311 0.031696 0.00396243 0 0 0 2.46332e-06 -1.30979e-07 -1.26055e-06 -1.92897e-06 -2.35941e-07 1.33273e-06 4.6599e-05 0.000450737 9.14116e-05 0.004 772.099 -5.55757 
254 1 1 0.0304491 0.0344766 0.0039815 0 0 0 -0.000818632 0.000870518 -1.29799e-14 -2.30717e-18 1.84971e-18 -7.14706e-16 -0.218134 -0.205132 -0.0703935 0.004 800 0 
257 1 1 -0.0296322 0.0352231 0.00395613 0 0 0 1.27814e-06 -1.10382e-06 2.0467e-06 -9.78223e-07 -9.7782e-08 -9.30385e-07 0.000195094 -2.03922e-05 -0.000105497 0.004 305.874 2.0494 
582 1 1 -0.0157655 0.0356206 0.00393205 0 0 0 3.59473e-06 -1.56725e-06 3.47801e-06 -1.4492e-06 -9.73623e-07 -8.06089e-07 0.000110088 0.000797344 0.000342154 0.004 329.779 5.82339 
255 1 1 -0.00267124 0.038932 0.00391147 0 0 0 2.41014e-06 -9.33157e-07 2.30662e-06 -1.3718e-06 -1.38196e-06 6.21774e-07 5.2494e-05 0.000495941 0.000350992 0.004 506.444 2.66925 
887 1 1 0.00812085 0.0373183 0.00392888 0 0 0 2.11499e-06 -1.16209e-06 5.56807e-07 -1.52824e-06 -1.32587e-06 7.50621e-07 0.000203446 0.000533063 0.000266 0.004 692.799 -8.65693 
719 1 1 0.0157853 0.0351951 0.00398363 0 0 0 1.72331e-06 -3.00246e-07 -2.7775e-07 -1.07321e-06 -2.3015e-07 5.9459e-07 -2.85237e-05 -5.26453e-05 4.75979e-05 0.004 747.292 -7.78495 
21 1 1 0.0234243 0.0396338 0.00391497 0 0 0 1.0115e-06 -3.08118e-07 -4.53637e-07 -7.69747e-07 -2.67902e-09 4.49125e-07 0.000141243 0.000139017 0.000120686 0.004 775.516 -5.25658 
325 1 1 -0.0222388 0.0402984 0.00393951 0 0 0 1.21422e-06 -8.09177e-07 1.74587e-06 -8.03365e-07 -4.18281e-07 -5.87065e-07 -0.000177235 7.38721e-05 0.000122968 0.004 320.791 4.90962 
595 1 1 -0.014931 0.0435393 0.00398254 0 0 0 6.82745e-07 -3.55375e-07 1.26005e-06 -6.6163e-07 -4.09483e-07 1.23334e-07 -0.000265221 -3.3468e-05 0.000119333 0.004 353.77 6.42184 
568 1 1 0.0162912 0.0430934 0.00392629 0 0 0 9.34146e-07 -2.58762e-07 -9.17706e-08 -7.34694e-07 -2.72711e-07 3.49684e-07 1.7206e-05 0.000122532 7.46297e-05 0.004 741.846 -7.40284 
387 1 1 -0.00719691 0.045487 0.00389932 0 0 0 6.14042e-07 -7.988e-07 1.48462e-06 -6.25334e-07 -6.20806e-07 2.96171e-07 -0.000134609 8.28358e-05 0.00012011 0.004 458.274 5.32271 
852 1 1 0.00075889 0.0460615 0.00397617 0 0 0 5.91153e-07 -1.41646e-07 7.6551e-07 -7.3231e-07 -3.97608e-07 6.18463e-07 -0.000147876 1.43788e-05 5.81467e-05 0.004 560.172 -1.82872 
157 1 1 0.00865318 0.0452493 0.00389824 0 0 0 8.65693e-07 -6.27017e-07 6.29754e-07 -1.28676e-06 -7.03652e-07 6.5429e-07 6.40169e-05 0.000210372 6.83926e-05 0.004 674.537 -7.30215 
400 1 1 -0.024752 -0.0387964 0.00974418 0 0 0 9.02871e-07 -9.96283e-07 -5.8522e-07 3.03738e-07 -4.54777e-07 -3.80752e-07 -3.38799e-05 -1.87284e-05 2.58936e-06 0.004 318.668 4.67116 
606 1 1 -0.000653948 -0.0387266 0.00813892 0 0 0 2.25527e-06 -4.89689e-06 -4.82309e-06 2.3286e-06 1.78529e-06 -3.66273e-07 2.98045e-05 0.000678084 -0.000637028 0.004 542.048 1.47782 
724 1 1 -0.0339144 -0.0311598 0.00984802 0 0 0 1.00982e-06 -7.10185e-07 -3.73821e-07 2.44174e-07 -1.02268e-06 -4.47006e-07 5.1144e-05 0.000211556 -0.000128478 0.004 305.365 1.79824 
183 1 1 0.0251947 -0.0311656 0.00751474 0 0 0 4.02066e-06 -3.05212e-06 -7.65094e-06 3.54832e-07 3.25466e-06 1.64103e-06 -0.000823028 6.63088e-05 2.46159e-06 0.004 777.321 -4.68651 
544 1 1 -0.0140218 -0.0253028 0.00874966 0 0 0 5.14672e-06 -7.32506e-06 -5.46015e-06 2.07455e-06 -9.6205e-07 -3.17097e-06 0.000277743 0.000367203 -0.000263406 0.004 371.094 7.0384 
29 1 1 -0.0045063 -0.0263793 0.00900729 0 0 0 5.63434e-06 -8.82844e-06 -9.41828e-06 2.63242e-06 1.23034e-06 -3.86362e-06 0.000755873 0.000763042 -0.000316822 0.004 467.101 6.07141 
248 1 1 0.003499 -0.0278426 0.00763308 0 0 0 4.47431e-06 -6.93013e-06 -8.06299e-06 2.53029e-06 2.89685e-06 -1.4921e-06 -0.000960041 0.000165234 6.48832e-05 0.004 605.462 -3.42125 
79 1 1 0.035837 -0.0289489 0.00959646 0 0 0 2.45574e-06 -2.87083e-06 -4.48799e-06 2.28276e-07 8.98852e-07 8.93045e-07 0.000616599 -0.00115612 0.000494072 0.004 793.914 -2.04334 
291 1 1 -0.00458872 -0.0173975 0.00909524 0 0 0 7.23528e-06 -8.28913e-06 -8.07869e-06 3.16687e-06 7.72986e-07 -2.97221e-06 -0.000106471 0.000283735 -7.39658e-05 0.004 489.5 3.10588 
891 1 1 0.00373488 -0.015528 0.00632508 0 0 0 5.10153e-06 -7.40309e-06 -9.16497e-06 1.84873e-06 3.06401e-06 -1.41761e-06 -0.000653242 -0.000317422 -0.000433213 0.004 601.69 -2.51659 
870 1 1 0.0138323 -0.0156364 0.00831015 0 0 0 1.04865e-05 -8.67356e-06 -1.18782e-05 3.31161e-06 6.17645e-06 4.87524e-06 0.000291042 7.83287e-05 0.000179366 0.004 723.668 -7.3659 
777 1 1 0.034969 -0.018778 0.00771 0 0 0 1.73613e-06 -3.13285e-06 -2.86067e-06 -1.01443e-06 1.1602e-06 1.88614e-06 0.000776177 -0.000933758 0.000534564 0.004 796.583 -1.21464 
837 1 1 -0.029449 -0.0146727 0.00803327 0 0 0 4.83575e-06 -1.64397e-06 9.41492e-07 5.9897e-07 -8.81089e-07 -1.58612e-06 9.70652e-05 -0.000130121 -0.000225667 0.004 308.385 2.20038 
445 1 1 -0.0181359 -0.0138493 0.00995278 0 0 0 8.9834e-06 -5.88597e-06 -3.90302e-06 1.64945e-06 -1.58873e-06 -5.00301e-06 0.000747054 0.000703315 -0.000350434 0.004 343.868 5.85318 
783 1 1 0.00485898 -0.00860656 0.00993768 0 0 0 1.31983e-05 -1.17069e-05 -1.15531e-05 2.42215e-06 2.44261e-06 1.72805e-06 0.00104151 0.000752128 -0.00149449 0.004 622.954 -4.26202 
615 1 1 -0.0350999 -0.000758695 0.00955184 0 0 0 7.53428e-06 -8.8931e-07 5.28528e-06 -2.83618e-06 -1.9538e-06 -1.98935e-06 0.000188287 6.9921e-05 -0.000385601 0.004 303.135 1.04075 
476 1 1 -0.0459521 0.00262139 0.00988978 0 0 0 2.7348e-06 -4.64458e-07 2.61994e-06 -1.27888e-06 -5.48471e-07 -5.83727e-07 0.000112308 -0.00013121 -9.9299e-05 0.004 300.296 0.166884 
16 1 1 -0.0210456 0.00169441 0.00830928 0 0 0 8.8398e-06 -2.84738e-06 3.5291e-06 -2.68809e-06 -2.44526e-06 -2.83162e-06 0.000463705 0.000326981 -5.35739e-06 0.004 328.881 4.90202 
303 1 1 0.0459492 0.00350463 0.00962655 0 0 0 3.88892e-06 8.77464e-07 -6.2448e-06 -7.8807e-07 5.60285e-07 2.15264e-06 0.000216188 -0.00123426 -0.000141348 0.004 799.592 -0.22178 
523 1 1 -0.0389797 0.00803082 0.00932862 0 0 0 7.18872e-06 -8.191e-07 6.84456e-06 -2.98555e-06 -1.74388e-06 -1.4562e-06 0.000196986 0.000621974 -5.93223e-05 0.004 301.566 0.623901 
704 1 1 -0.010798 0.00519225 0.00743861 0 0 0 9.10111e-06 -3.68845e-06 1.80252e-06 -2.9897e-06 -2.40167e-06 -4.09024e-06 0.000160949 0.000252847 5.4041e-05 0.004 397.711 6.96459 
454 1 1 0.00101181 0.00715934 0.00933956 0 0 0 1.20991e-05 -6.19872e-06 -3.95835e-06 -3.42235e-06 -1.63349e-06 -2.02045e-06 0.00037517 0.000439242 0.000471778 0.004 554.688 -0.0722497 
31 1 1 0.0102165 0.00547591 0.00832589 0 0 0 1.16732e-05 -6.99304e-06 -1.0241e-05 -1.60004e-06 5.76306e-08 1.01591e-06 0.0014303 0.000634357 0.000508084 0.004 683.428 -6.57575 
135 1 1 0.0188886 0.0074917 0.00960781 0 0 0 1.19229e-05 -5.75854e-06 -9.40338e-06 -3.13249e-06 -8.86151e-07 3.47128e-06 -0.000296939 0.00221442 -0.000174545 0.004 773.649 -5.32968 
712 1 1 0.0281139 0.00743267 0.00998852 0 0 0 1.05491e-05 -2.28046e-07 -1.48866e-05 -2.89963e-06 -3.60142e-07 5.82113e-06 -0.00155774 0.00132787 0.000169144 0.004 790.665 -2.6511 
210 1 1 0.0394934 0.00814606 0.00989878 0 0 0 8.52846e-06 3.13185e-07 -9.33834e-06 -2.90294e-06 2.69777e-07 3.70011e-06 0.000604829 0.00115237 0.000279374 0.004 798.782 -0.54009 
651 1 1 -0.0437987 0.0143398 0.00823567 0 0 0 3.43812e-06 -1.85915e-08 3.37005e-06 -1.54173e-06 -9.44345e-07 -6.90058e-07 6.88421e-05 -0.000155451 0.00010479 0.004 300.734 0.360648 
621 1 1 0.0437182 0.0147846 0.00900764 0 0 0 4.22763e-06 2.68164e-07 -4.54141e-06 -1.6674e-06 1.21314e-07 1.62967e-06 0.000478099 -0.000552054 0.000282798 0.004 798.493 -0.62081 
726 1 1 -0.0257657 0.0199972 0.00692825 0 0 0 5.539e-06 -1.69932e-06 5.69505e-06 -3.32427e-06 -1.39739e-06 -2.78856e-06 0.000668823 0.000353006 -0.000164468 0.004 312.198 3.13179 
230 1 1 -0.00847464 0.024595 0.00973776 0 0 0 9.61203e-06 -3.02585e-06 7.147e-06 -5.29882e-06 -3.9253e-06 -3.67283e-06 0.000834911 0.000117321 -0.000788043 0.004 439.75 6.76635 
320 1 1 -0.00171263 0.020405 0.00979386 0 0 0 9.10793e-06 -5.44215e-06 3.29158e-06 -5.95379e-06 -4.3335e-06 -2.23021e-06 0.000358914 0.000538235 -3.42676e-05 0.004 516.116 4.05134 
7 1 1 0.0129211 0.0224303 0.00918516 0 0 0 7.63897e-06 -2.6544e-06 -2.11088e-06 -4.61257e-06 -1.7732e-06 1.46447e-06 0.000465621 0.000666697 0.0002426 0.004 711.508 -6.69449 
83 1 1 0.0214164 0.0239651 0.00888424 0 0 0 5.70551e-06 -1.45475e-06 -4.33111e-06 -2.98979e-06 -1.00486e-06 2.3138e-06 0.000485294 0.00089734 0.000186351 0.004 772.214 -4.85332 
747 1 1 -0.0337321 0.0313835 0.00974072 0 0 0 3.96147e-06 -2.03904e-06 5.10422e-06 -2.1124e-06 -6.95224e-07 -1.81886e-06 -0.000163675 -0.000652791 6.69479e-05 0.004 306.243 2.00381 
51 1 1 -0.0226192 0.0329654 0.00703451 0 0 0 3.72123e-06 -1.57997e-06 4.96468e-06 -2.45181e-06 -1.19418e-06 -2.10687e-06 -0.000356151 -3.42087e-06 0.000312582 0.004 314.107 3.77025 
116 1 1 -0.00940734 0.0391203 0.00809817 0 0 0 4.66457e-06 -2.6307e-06 6.14539e-06 -2.02905e-06 -2.0525e-06 -2.29114e-07 -0.000404235 0.00056919 0.000481559 0.004 440.81 6.91903 
205 1 1 -0.000560462 -0.0460776 0.0110171 0 0 0 1.53581e-06 -2.8378e-06 -2.10765e-06 1.4111e-06 6.17252e-07 -6.32253e-07 -0.000339675 0.000350636 2.36152e-05 0.004 533.456 5.06099 
836 1 1 0.00737985 -0.0454688 0.0106611 0 0 0 1.86105e-06 -2.96323e-06 -3.12653e-06 1.04776e-06 1.1391e-06 2.9082e-07 -0.000183963 0.000382895 -0.000202367 0.004 629.859 -5.01097 
486 1 1 -0.0156916 -0.0402432 0.0103352 0 0 0 1.32214e-06 -2.57236e-06 -1.21617e-06 6.53516e-07 8.02011e-07 -3.4127e-07 -0.000564959 0.000474897 -0.000899099 0.004 354.309 7.53307 
311 1 1 -0.00836812 -0.0439882 0.0106791 0 0 0 4.64117e-06 -4.32504e-06 -3.58368e-06 1.38235e-06 9.48835e-07 -9.36901e-07 0.000600944 0.000418235 0.000161298 0.004 396.929 10.4389 
447 1 1 0.0180551 -0.0423881 0.0118323 0 0 0 1.95443e-06 -3.18273e-06 -3.51661e-06 7.45218e-07 1.03636e-06 -1.03025e-07 -0.000309363 -0.00051085 0.000156306 0.004 728.694 -8.00275 
538 1 1 -0.0295743 -0.0353509 0.0149849 0 0 0 1.1925e-06 -1.52494e-06 -1.04293e-06 4.86998e-07 -1.04091e-06 -8.43063e-07 -3.92249e-06 9.89467e-05 -0.000215673 0.004 310.756 2.9238 
279 1 1 0.011155 -0.0385417 0.0114152 0 0 0 4.22691e-06 -6.51392e-06 -7.18625e-06 2.44065e-06 2.62515e-06 2.94623e-07 0.000326499 3.34545e-05 -0.000102588 0.004 677.923 -6.62935 
110 1 1 0.0250464 -0.0386627 0.0117241 0 0 0 2.02886e-06 -3.14337e-06 -2.50015e-06 5.04544e-07 1.30185e-06 9.20821e-07 0.000135994 -0.000205382 -1.96292e-05 0.004 765.947 -6.18224 
188 1 1 -0.0179041 -0.0321006 0.0101564 0 0 0 3.69903e-06 -6.68771e-06 -4.70857e-06 1.60737e-06 -9.23397e-07 -2.45251e-06 0.000515712 0.000274105 -0.000329861 0.004 348.636 6.535 
810 1 1 -0.0102601 -0.034451 0.0102037 0 0 0 4.19044e-06 -7.64983e-06 -6.7242e-06 2.01519e-06 -8.87074e-08 -2.65308e-06 0.000379984 0.000735782 -0.00049575 0.004 405.825 7.16704 
412 1 1 -0.00316746 -0.0328806 0.0133527 0 0 0 6.25762e-06 -1.11687e-05 -1.20106e-05 2.80443e-06 5.78411e-07 -4.38559e-06 0.000101227 0.000197276 -0.000117243 0.004 486.835 4.06728 
545 1 1 0.00452052 -0.0343088 0.0121941 0 0 0 6.18684e-06 -8.4042e-06 -8.85127e-06 3.4605e-06 3.27687e-06 -1.05352e-06 0.000158508 -0.000235175 -5.42216e-05 0.004 607.882 -3.05215 