ITEM: TIMESTEP
5600
ITEM: NUMBER OF ATOMS
891
ITEM: BOX BOUNDS mm mm mm
-0.05 0.05
-0.05 0.05
0 0.15
ITEM: ATOMS id type type x y z ix iy iz vx vy vz fx fy fz omegax omegay omegaz radius f_Temp[0] f_heatFlux[0] 
199 1 1 -0.00407233 -0.0458392 0.00398115 0 0 0 -0.000177922 0.00749913 0.00111593 0.00385377 -0.00351124 -0.00285158 -0.268626 -0.551934 4.51749 0.004 300 0 
873 1 1 -0.0198054 -0.0416506 0.00393777 0 0 0 0.00874175 -0.00931891 -0.00610108 -0.0136115 0.0492651 -0.00394841 1.00055 0.162512 -2.85563 0.004 300 0 
485 1 1 -0.0123281 -0.0443268 0.00396226 0 0 0 0.0155397 -0.0106017 -0.0118165 0.0326052 -0.0254599 0.00400929 0.330063 0.423618 3.70252 0.004 300 0 
850 1 1 0.00352 -0.0433524 0.0039708 0 0 0 0.004046 0.00321756 0.000724099 -0.00263999 -0.0279416 0.0101995 -0.357818 1.76289 -5.03603 0.004 300 0 
186 1 1 0.011407 -0.0445923 0.00396551 0 0 0 -0.000155062 -0.00281083 -0.00739106 -0.0124145 0.00707757 0.0104611 0.128693 -1.56425 0.904027 0.004 300 0 
560 1 1 0.0189511 -0.041993 0.00393665 0 0 0 -0.0100134 0.00103912 0.00765243 -0.0195116 0.0304851 -0.000522539 2.02455 -0.985483 0.73353 0.004 300 0 
682 1 1 -0.0300939 -0.0349082 0.00395135 0 0 0 0.00682535 0.0118383 -0.0109404 0.0124417 0.0199823 0.00137817 -0.947313 1.3765 -0.0246757 0.004 300 0 
102 1 1 -0.0144869 -0.035813 0.00388039 0 0 0 0.00215846 -0.0126587 -0.00279283 0.0139402 0.0035913 -0.023625 2.84412 0.898185 5.10886 0.004 300 0 
88 1 1 -0.0069747 -0.0384096 0.00395403 0 0 0 -0.00701026 0.00462422 0.00201395 0.0306578 -0.00853551 -0.0209994 -1.02153 0.963835 -5.73423 0.004 300 0 
776 1 1 0.00537806 -0.035588 0.0039661 0 0 0 -0.0167786 -0.0280056 0.00342278 -0.0323811 0.0118997 -0.00204607 0.688633 4.62995 -0.797789 0.004 300 0 
282 1 1 0.0258494 -0.0380696 0.00390067 0 0 0 -0.00605688 -9.61835e-05 -0.00112055 -7.44112e-05 0.00610493 0.0239684 -0.0247972 -0.886069 -0.818252 0.004 300 0 
251 1 1 -0.0222332 -0.0341057 0.00397149 0 0 0 0.0101773 0.0136081 -0.00410583 -0.00220465 0.0572564 -0.0194796 0.909345 -2.56875 -1.97953 0.004 300 0 
770 1 1 -0.00182805 -0.0322747 0.00394049 0 0 0 0.00933509 0.0049392 0.00436665 -0.0232769 0.0159607 -0.00239631 1.17696 -1.0208 7.80949 0.004 300 0 
883 1 1 0.0191129 -0.0320821 0.00389577 0 0 0 -0.041762 0.0254688 -0.0114237 0.00400574 0.00935172 0.0611133 -1.52802 -2.66658 -7.88282 0.004 300 0 
838 1 1 0.0320681 -0.0331484 0.00392691 0 0 0 -0.00705464 -0.00473374 -0.0116499 -0.0156053 0.0214343 0.0407092 1.46287 -5.38353 1.9741 0.004 300 0 
617 1 1 -0.0372008 -0.0271514 0.00391199 0 0 0 0.0407255 -0.0559632 -0.0088023 -0.00385865 0.0149034 0.0323525 -1.37712 2.04872 -1.71047 0.004 300 0 
824 1 1 -0.0291452 -0.0270121 0.00394607 0 0 0 0.0347012 0.015146 -0.0222802 -0.0184031 -0.00333426 0.0696014 -2.61016 6.08765 -14.9748 0.004 300 0 
571 1 1 -0.0198821 -0.0265177 0.0039474 0 0 0 -0.0301371 0.0307031 0.00125903 -0.0308018 0.0511297 0.022211 -1.05598 -1.94809 -10.3946 0.004 300 0 
861 1 1 -0.00933669 -0.0297804 0.00393779 0 0 0 -0.00639819 -0.0130703 -0.00304959 -0.00581743 0.0430486 -0.0380597 -0.506449 3.37624 -4.87735 0.004 300 0 
434 1 1 0.0117226 -0.0290949 0.00394666 0 0 0 -0.0379197 -0.00791982 -0.0033804 -0.0202387 0.0216134 -0.00591141 -0.342802 -1.58265 5.15921 0.004 300 0 
103 1 1 0.0309325 -0.0253406 0.00398552 0 0 0 -0.00140201 -0.00587581 -0.00968166 0.0202328 -0.00491637 -0.0106555 1.43741 -0.613693 -2.2642 0.004 300 0 
40 1 1 -0.0250339 -0.0201955 0.00392234 0 0 0 0.0361899 0.0174257 0.0131907 -0.0168975 -0.000230007 0.052088 3.313 9.05582 20.0365 0.004 300 0 
19 1 1 -0.00843538 -0.0219011 0.00393978 0 0 0 0.00667283 -0.0251774 -0.0138236 -0.029628 0.00775553 0.00684426 2.06929 2.33404 -2.58538 0.004 300 0 
442 1 1 -0.000429318 -0.0216565 0.00395883 0 0 0 -0.0369817 0.0337937 0.010428 -0.05038 -0.0212309 0.00477576 -6.4778 -0.272572 4.84485 0.004 300 0 
259 1 1 0.00750113 -0.0221731 0.00393905 0 0 0 -0.0346594 0.0259254 -0.0069335 -0.0257244 -0.0314465 -0.0278219 -5.24082 -0.292961 -4.99325 0.004 300 0 
512 1 1 0.0154218 -0.0220156 0.00396391 0 0 0 -0.0317966 -0.000260338 -0.00372769 0.00371508 -0.0236275 -0.0123438 -1.33092 -0.0243973 -2.74901 0.004 300 0 
470 1 1 0.023099 -0.0241655 0.00392275 0 0 0 -0.00453052 0.0342482 -0.00801909 0.0117467 -0.0190265 0.0220803 -0.54802 -1.71053 -3.24938 0.004 300 0 
451 1 1 0.0388378 -0.0247726 0.00392071 0 0 0 0.00768539 0.0255562 -0.0050658 0.0169634 -0.00243136 -0.0319475 4.58209 -2.74661 0.0497924 0.004 300 0 
94 1 1 -0.0333283 -0.0202294 0.00394911 0 0 0 -0.0142094 -0.0206902 0.00869679 0.00244266 0.0276892 0.00588491 6.95958 -3.56983 -3.36101 0.004 300 0 
531 1 1 -0.016632 -0.0191566 0.00395327 0 0 0 0.0318817 0.0314867 0.0108357 -0.00304622 -0.00253339 0.0582012 -1.29108 0.0488437 5.30208 0.004 300 0 
229 1 1 0.0210838 -0.0164688 0.00388787 0 0 0 -0.0420942 0.00885198 -0.00495546 0.00716794 0.00671531 -0.0065502 -1.78109 -6.40416 3.34854 0.004 300 0 
734 1 1 0.0289077 -0.0177115 0.0039377 0 0 0 -0.0318868 -0.0165855 -0.0173982 0.0156085 -0.0284532 -0.0315505 1.18602 -0.519775 8.10704 0.004 300 0 
635 1 1 0.0424615 -0.0177471 0.00396373 0 0 0 0.00649915 0.0317607 0.00255899 0.0165463 -0.00473971 -0.0506234 0.603951 0.934424 0.881224 0.004 300 0 
406 1 1 -0.0374079 -0.0133584 0.00394918 0 0 0 0.0473775 -0.0163433 -0.00381357 0.0397206 -0.0143377 0.018754 4.48068 -2.0446 0.655383 0.004 300 0 
224 1 1 -0.0228879 -0.012537 0.00392521 0 0 0 -0.0380111 0.0362085 -0.00155928 -0.00978803 -0.00473747 -0.0134029 -9.30926 -9.0971 -0.136956 0.004 300 0 
751 1 1 -0.00950409 -0.0140656 0.00394856 0 0 0 0.00662939 -0.0181453 0.0112668 -0.0377302 0.0124609 0.00247628 1.25629 2.23191 10.4761 0.004 300 0 
622 1 1 -0.00200257 -0.0115202 0.00390642 0 0 0 -0.0133507 0.0106429 0.0125231 -0.0165304 -0.00215885 0.00625099 -3.52145 -2.51709 -1.6839 0.004 300 0 
128 1 1 0.00976282 -0.0111422 0.00396266 0 0 0 -0.0787898 -0.0172548 -0.0290316 -0.0502481 0.0645037 -0.0568013 0.648885 -2.57154 2.61832 0.004 300 0 
791 1 1 0.0357014 -0.0134503 0.00396086 0 0 0 -0.00574482 0.0279022 0.000356653 0.0147209 0.0671432 -0.0316057 3.25586 -3.57282 -8.59354 0.004 300 0 
10 1 1 0.0448979 -0.0102143 0.00395991 0 0 0 0.00151431 0.0359036 0.0109225 -0.00805019 -0.0122501 0.00051593 -3.2375 0.686011 -0.868864 0.004 300 0 
87 1 1 -0.0448045 -0.0104403 0.00397965 0 0 0 0.00280166 -0.0670422 -0.0457311 -0.057286 0.0641663 -0.0309041 7.14387 2.40945 -2.20625 0.004 300 0 
354 1 1 -0.0385407 -0.00540482 0.00393874 0 0 0 -0.0163141 0.013409 -0.0100732 0.0559753 -0.0176351 0.0316366 2.32913 -1.43134 20.4423 0.004 300 0 
725 1 1 -0.0309773 -0.00791573 0.00393354 0 0 0 -0.0305889 -0.0168493 -0.00452574 0.0283696 0.0141056 -0.00817365 -1.06756 -7.71857 -11.5576 0.004 300 0 
293 1 1 -0.0226387 -0.00454544 0.00398037 0 0 0 0.0570799 0.0160677 0.00874554 -0.0122292 -0.0283029 -0.0285503 3.2474 2.89771 1.20086 0.004 300 0 
353 1 1 -0.0157176 -0.00916116 0.00399637 0 0 0 -0.000484661 -0.0174671 0.0146702 -0.0192457 0.012102 -0.0300332 -0.0125849 -2.10172 -9.1803 0.004 300 0 
391 1 1 -0.00804438 -0.00614814 0.00398419 0 0 0 0.00267904 -0.00617213 0.00313921 -0.000559007 0.000530836 -0.00562127 -2.48839 -3.57751 6.58571 0.004 300 0 
683 1 1 0.0175497 -0.00938462 0.00392131 0 0 0 -0.0493539 0.00935176 -0.0175384 -0.00284342 0.0218145 -0.0165333 5.56758 -5.31476 -0.511603 0.004 300 0 
68 1 1 0.027789 -0.00989815 0.00396658 0 0 0 -0.0569841 -0.0119107 -0.00311156 0.017808 -0.0208493 -0.0286217 -0.9719 -1.20775 -2.4996 0.004 300 0 
690 1 1 0.0382732 -0.00580768 0.00395771 0 0 0 -0.0105916 0.0196255 0.00779799 -0.007456 0.0116308 -0.00732781 -1.00866 1.26798 11.8203 0.004 300 0 
402 1 1 -0.045965 -0.00249872 0.00396429 0 0 0 -0.00798606 -0.086377 -0.0191426 -0.0123995 0.00446917 -0.031128 11.8181 -0.277605 -15.5959 0.004 300 0 
384 1 1 -0.0151929 -0.00126097 0.00396228 0 0 0 0.0191583 -0.0156453 0.00519745 -0.0168474 0.0203384 -0.0114846 -3.16065 4.34905 4.70442 0.004 300 0 
378 1 1 0.00267744 -0.00511778 0.00393445 0 0 0 -0.0301883 0.00951002 -0.0150911 -0.0165566 0.0547949 0.00786304 2.35344 0.0367862 -7.28995 0.004 300 0 
390 1 1 0.0104104 -0.00321119 0.00399193 0 0 0 0.0180247 -0.0505451 -0.00263581 0.0308087 0.0681682 -0.0142035 0.951062 -2.94817 -7.053 0.004 300 0 
411 1 1 0.0229723 -0.00361002 0.00399737 0 0 0 -0.0584895 0.00713508 0.0133583 -0.0241997 0.0401081 -0.0297347 -2.47316 -3.55592 11.0313 0.004 300 0 
342 1 1 0.0309593 -0.00262882 0.00395967 0 0 0 -0.024097 -0.0259949 -0.000678862 0.00406398 0.0328896 -0.00259059 1.08854 -4.07164 -4.19529 0.004 300 0 
262 1 1 0.0459809 -0.00236142 0.00394484 0 0 0 -0.0112057 0.0414898 0.00163234 -0.0135775 0.00466027 0.00365854 -0.739476 -0.343822 3.06822 0.004 300 0 
261 1 1 -0.0397794 0.00254739 0.00395344 0 0 0 -0.00416933 -0.0763065 0.00236131 -0.0124393 0.0288994 0.0230292 2.69035 -4.61425 10.7456 0.004 300 0 
761 1 1 -0.029437 -0.000143167 0.00394492 0 0 0 0.0130733 -0.0233636 -0.00158415 0.0342291 0.00805786 -0.0151017 0.73353 -0.855033 3.17568 0.004 300 0 
666 1 1 -0.0033393 0.00034673 0.00396681 0 0 0 0.0276094 -0.0179715 0.0107826 -0.0141959 0.00553193 -0.0191347 3.66917 5.73091 -8.29283 0.004 300 0 
815 1 1 0.00472884 0.00255322 0.00392499 0 0 0 0.00574 0.00133207 0.0116612 0.00886917 0.0021586 -0.0081985 0.586893 -0.536291 4.69417 0.004 300 0 
306 1 1 0.0165036 0.00206349 0.00396107 0 0 0 -0.0811937 -0.0188274 -0.0163409 -0.0478029 -0.0378372 0.0175502 1.88833 5.95295 6.65184 0.004 300 0 
178 1 1 0.024169 0.00420897 0.00391798 0 0 0 -0.0686138 0.0039462 0.0025482 4.74837e-05 0.016381 -0.0332869 -1.92675 -17.2837 -9.27753 0.004 300 0 
661 1 1 0.0398891 0.00276544 0.0039496 0 0 0 -0.0209126 0.0369295 -0.00319889 -0.000224084 0.0094519 -0.00362403 -1.19142 -3.22574 4.61105 0.004 300 0 
677 1 1 -0.0452308 0.00838217 0.00396775 0 0 0 -0.00309229 -0.0696671 -0.00278782 -0.00598652 0.0415386 -0.029487 8.65263 0.0294087 -3.69227 0.004 300 0 
12 1 1 -0.0330879 0.00680278 0.00502059 0 0 0 -0.0193615 -0.0350079 -0.0163047 -0.0104838 0.00984726 0.000464415 -1.06419 -1.30717 -6.10173 0.004 300 0 
420 1 1 -0.0249174 0.00642302 0.00394588 0 0 0 -0.019329 0.00102822 -0.00825802 -0.014833 0.0174388 0.0492689 2.5995 0.203648 -6.83852 0.004 300 0 
654 1 1 -0.0169433 0.00648241 0.00395644 0 0 0 -0.0211342 -0.00571268 -0.00918945 -0.0186573 0.034576 -0.0110558 -1.28002 -2.31847 4.96117 0.004 300 0 
145 1 1 -0.00434062 0.00829101 0.00393131 0 0 0 0.0287691 -0.0124979 0.00283328 0.000433927 -0.0121897 -0.0230721 1.91885 6.17203 10.0689 0.004 300 0 
862 1 1 0.0323201 0.00520742 0.00398203 0 0 0 -0.042418 -0.0270506 -0.00559262 -0.0131919 -0.00922878 0.00205669 0.574733 1.84625 1.80909 0.004 300 0 
624 1 1 0.0452315 0.00866945 0.0039537 0 0 0 0.00446531 -0.00197176 0.00105933 -0.0119652 0.00960406 -0.0032437 -0.563213 0.932851 -1.78644 0.004 300 0 
613 1 1 -0.0380827 0.0128756 0.00392102 0 0 0 0.0213015 -0.00771852 -0.00815653 -0.00662482 -0.0021599 0.0208144 6.24924 -2.31023 0.66789 0.004 300 0 
265 1 1 -0.0288311 0.0134446 0.00397476 0 0 0 -0.0246738 -0.0297508 -0.0055325 0.00720862 0.00668163 -0.00126278 1.952 -0.948636 7.44013 0.004 300 0 
273 1 1 -0.020859 0.0134014 0.00395666 0 0 0 -0.0296309 -0.00746556 -0.00319155 -0.0100941 0.00970086 0.0132128 4.57714 1.05409 -3.5244 0.004 300 0 
492 1 1 -0.0123804 0.013011 0.00395743 0 0 0 0.00291966 -0.00434302 0.00472303 0.0160714 -0.00896377 -0.000286548 -1.11052 2.0613 -4.0555 0.004 300 0 
392 1 1 6.66569e-06 0.0149535 0.00394803 0 0 0 0.010039 0.00897049 -0.000916704 0.00487067 -0.00919207 -0.0173806 -2.50716 -0.0782679 -6.74484 0.004 300 0 
234 1 1 0.00646487 0.0103054 0.0039621 0 0 0 0.00083705 0.00812078 -0.000637625 -0.00185977 0.0226468 0.00869531 -0.310518 1.48078 5.22825 0.004 300 0 
160 1 1 0.0144613 0.0110324 0.00398722 0 0 0 0.00373878 -0.000442714 -0.00724371 -0.0484999 -0.00264211 -0.0715456 -5.05289 2.56765 1.35654 0.004 300 0 
484 1 1 0.0223802 0.0119502 0.00394952 0 0 0 0.0109766 0.0186066 -0.000167397 -0.0327562 -0.0040006 -0.00767322 4.84244 -0.907717 -3.92516 0.004 300 0 
743 1 1 0.0302887 0.012879 0.00398587 0 0 0 0.0162125 -0.00618104 -0.00470618 0.00211225 -0.0102108 -0.00525915 -0.579454 2.99512 -11.0668 0.004 300 0 
514 1 1 0.0382098 0.012389 0.00396102 0 0 0 0.017225 0.0240143 -0.0304019 0.00732405 0.0630881 -0.00396794 0.293599 -0.0110706 8.43411 0.004 300 0 
227 1 1 -0.00775611 0.0194818 0.00397235 0 0 0 0.00692509 -0.00159043 0.0035734 0.0117931 0.0159344 0.0127152 1.35316 1.15128 2.56249 0.004 300 0 
493 1 1 0.0098336 0.0175069 0.0039687 0 0 0 0.00854991 0.00153618 -0.0101962 -0.0130411 -0.0102981 0.00799189 0.709539 2.63921 -7.70102 0.004 300 0 
34 1 1 0.0176897 0.0186637 0.00396765 0 0 0 0.0171759 -0.0545495 0.00494282 -0.0292755 0.0135773 0.00544973 11.6374 0.710052 -1.57881 0.004 300 0 
206 1 1 0.0255965 0.0192557 0.00398081 0 0 0 0.0172433 -0.006853 0.00137168 -0.0119504 0.0212863 0.00318303 0.111288 1.18829 12.5747 0.004 300 0 
718 1 1 0.041618 0.0196241 0.00392362 0 0 0 0.00560397 0.00498632 0.00360851 -0.00260901 0.0139203 0.0256637 1.83432 2.26347 -0.480246 0.004 300 0 
809 1 1 -0.0413595 0.0202147 0.00401142 0 0 0 0.00920671 -0.00337835 0.00344563 0.0448585 -0.0241149 -0.0194256 -3.68445 -1.77977 -2.17983 0.004 300 0 
773 1 1 -0.0331094 0.0201723 0.00396201 0 0 0 -0.0543516 -0.0471399 -0.000452778 -0.00262983 0.0228214 -0.0289395 6.31334 -3.54618 0.228761 0.004 300 0 
530 1 1 -0.0163399 0.0199366 0.00397148 0 0 0 0.00979864 -0.0195696 1.33869e-05 -0.0108644 0.0238843 -0.00157733 -2.13105 -1.53176 -2.94248 0.004 300 0 
792 1 1 0.00342711 0.0221765 0.00398534 0 0 0 -0.000783451 0.00312734 0.00109662 -0.0171596 -0.0193563 -0.0112428 -1.0828 2.54164 8.28192 0.004 300 0 
104 1 1 0.0336515 0.0201424 0.00394447 0 0 0 0.00924947 0.000224355 0.00650613 0.0054284 -0.0374865 0.0107024 2.74694 -0.591773 2.1361 0.004 300 0 
101 1 1 -0.0371895 0.0270915 0.00397044 0 0 0 0.000569884 -0.00808851 -0.00387181 -0.00063473 0.00107854 -0.0313998 2.69197 -0.478861 -4.36784 0.004 300 0 
246 1 1 -0.0292213 0.0276057 0.00394969 0 0 0 0.0144553 -0.0181656 0.00473501 0.0112741 -0.0111762 -0.002138 -0.685956 -0.518946 2.70027 0.004 300 0 
331 1 1 -0.0213601 0.0263044 0.00396801 0 0 0 0.0168096 -0.022096 -0.00249192 0.00661223 -0.0191585 0.00880997 5.28444 0.0674119 -2.2078 0.004 300 0 
846 1 1 -0.0134597 0.0273455 0.0039667 0 0 0 0.0267755 -0.0281088 -0.0154646 -0.00943209 0.01168 0.020844 0.467968 3.54949 -1.7407 0.004 300 0 
348 1 1 -0.00342447 0.0261657 0.00395045 0 0 0 -0.00385388 0.0155778 4.46072e-05 -0.0116868 -0.00585537 0.00161281 -0.415573 -2.14798 -6.22751 0.004 300 0 
786 1 1 0.0085241 0.0282913 0.00394355 0 0 0 0.010206 -0.0141701 0.0134164 0.0103745 0.0218769 0.0221435 -1.03503 -0.705797 -1.89043 0.004 300 0 
316 1 1 0.0163828 0.0271354 0.00394721 0 0 0 0.0075786 0.00952205 -0.00515266 0.00268198 -0.0345725 -0.00631371 7.28416 4.64205 -0.891975 0.004 300 0 
495 1 1 0.0288403 0.0264858 0.00397025 0 0 0 0.00682703 -0.000215307 0.00131407 0.0195388 0.0181339 -0.00792331 -0.0571402 -1.10917 -7.67406 0.004 300 0 
863 1 1 0.0366399 0.0279084 0.0039822 0 0 0 0.0313731 -0.059155 0.00591181 0.0108975 -0.0327121 -0.0250099 2.00315 0.678086 -0.309397 0.004 300 0 
511 1 1 -0.00773619 0.0328425 0.00393517 0 0 0 0.00172002 0.00854066 -0.00402336 -0.00909165 -0.00162157 0.0557966 -1.24373 0.771713 5.29132 0.004 300 0 
722 1 1 0.00166245 0.0322963 0.00398075 0 0 0 0.0150115 0.0087749 0.000188087 -0.00735215 0.00128641 -0.00110734 -1.16573 2.82193 2.39467 0.004 300 0 
2 1 1 0.0228838 0.0317044 0.00397386 0 0 0 0.00942354 0.00408278 0.000892838 -0.0171468 -0.0113539 -0.0105093 0.548863 1.07303 0.332628 0.004 300 0 
254 1 1 0.0305313 0.0343388 0.00398051 0 0 0 -0.0316453 0.0185009 2.81308e-05 0.00106228 -0.000404438 0.0016942 -3.34739 -4.54465 -2.63986 0.004 300 0 
257 1 1 -0.0290545 0.0355947 0.00398116 0 0 0 -0.0149894 0.00291356 -0.000190998 0.0109273 0.0104386 -0.0171226 4.03851 -2.24529 3.24984 0.004 300 0 
582 1 1 -0.0152277 0.0355159 0.00396304 0 0 0 -0.00973498 0.00136172 -0.000743291 -0.00991581 0.00696691 -0.000993974 2.78774 0.930446 0.582994 0.004 300 0 
255 1 1 -0.00268321 0.0389507 0.00398072 0 0 0 0.00659528 0.00474544 -0.00727411 -0.011724 0.00690714 0.0107641 0.113447 -1.90983 -1.03067 0.004 300 0 
887 1 1 0.00799468 0.0372743 0.00395952 0 0 0 -0.0158382 -0.00844091 0.00366942 -0.00214571 -0.000298437 -0.0133938 -1.12022 2.83715 -5.12323 0.004 300 0 
719 1 1 0.0156546 0.0350712 0.00398848 0 0 0 -0.00398411 0.00614133 -0.00832656 0.00284185 0.0104281 -0.00412133 -6.3762 -0.252466 5.07655 0.004 300 0 
21 1 1 0.0235429 0.0395941 0.00394679 0 0 0 0.00510809 -0.000748735 0.00425891 -0.012303 0.00154832 0.00368744 0.425166 1.39478 0.798872 0.004 300 0 
325 1 1 -0.0224431 0.0400912 0.00394104 0 0 0 -0.0303461 0.0120152 -0.00103417 -0.00507788 0.0289126 0.0215521 3.54467 -4.29833 -3.06689 0.004 300 0 
595 1 1 -0.0150278 0.0434887 0.00405741 0 0 0 -0.0176976 -0.00573734 0.061252 -0.00146764 0.0119218 -0.0226893 -3.19479 2.02049 -1.01412 0.004 300 0 
568 1 1 0.0163694 0.0430167 0.00395882 0 0 0 0.00892787 -0.00224558 0.00598787 -0.00662798 0.0028066 -0.0409839 -1.12701 1.00615 -0.442283 0.004 300 0 
387 1 1 -0.00728615 0.0454522 0.00394613 0 0 0 -0.00908026 -0.00356968 0.00502915 0.00106115 0.00525129 0.00727084 1.32078 -2.30198 -0.00517474 0.004 300 0 
852 1 1 0.000832287 0.0460498 0.00397833 0 0 0 0.00542554 0.000826767 -0.00133162 -0.00939203 0.00307493 0.0024746 0.222024 -1.69713 1.23547 0.004 300 0 
157 1 1 0.00873602 0.0452094 0.00394044 0 0 0 -0.00250091 -0.00621496 0.00686002 -0.00556915 0.0038465 -0.00890524 0.86827 -0.469374 0.917462 0.004 300 0 
606 1 1 -0.000634335 -0.0384825 0.00873701 0 0 0 0.00074196 -0.00672971 -0.000454529 -0.00014764 0.00843694 0.00817319 -5.88299 -7.2475 -1.41119 0.004 300 0 
410 1 1 0.0130413 -0.0369275 0.00543108 0 0 0 -0.0218612 -0.00145126 -0.0209705 -0.0340499 0.000752959 0.00973374 -5.07267 1.64136 6.11441 0.004 300 0 
724 1 1 -0.0338549 -0.0311977 0.009857 0 0 0 0.0263629 -0.0253812 0.0172322 -0.0173027 0.00178161 0.0401558 -2.83285 1.86456 -3.10083 0.004 300 0 
183 1 1 0.0257051 -0.031041 0.00811352 0 0 0 -0.0256194 -0.0292113 -0.00226428 -0.0160822 0.0172437 0.108201 2.24216 0.587301 -2.6344 0.004 300 0 
544 1 1 -0.0137488 -0.0253979 0.00886056 0 0 0 0.00378666 0.000688018 0.0135064 -0.0279569 0.00348411 -0.0313412 -0.804866 0.195699 3.34754 0.004 300 0 
29 1 1 -0.00441148 -0.0250898 0.00996391 0 0 0 -0.00184932 -0.077254 -0.0214928 0.0546474 -0.0248817 -0.0102806 3.83801 -3.81909 7.7243 0.004 300 0 
248 1 1 0.00335329 -0.0277025 0.0078667 0 0 0 -0.00896124 0.0267253 0.0184217 0.00155647 -0.00547299 0.0023056 3.12235 0.216476 6.82983 0.004 300 0 
814 1 1 0.0183329 -0.0266863 0.00970281 0 0 0 -0.00426782 0.0176571 -0.000182749 0.0090117 -0.000664577 0.0392518 2.67173 2.11053 6.70431 0.004 300 0 
79 1 1 0.0357048 -0.0290982 0.0097239 0 0 0 -0.0125098 -0.00308835 -0.0150948 0.0165978 0.00316787 0.0085098 -2.78132 0.411797 -0.866823 0.004 300 0 
769 1 1 -0.0413475 -0.0201951 0.00503404 0 0 0 -0.00285442 -0.0146716 -0.122945 0.000225858 -0.023047 -0.0131898 -4.58117 -5.08327 -4.90664 0.004 300 0 
291 1 1 -0.00395559 -0.0169704 0.00935256 0 0 0 -0.0112799 0.034476 0.0239629 0.0158709 -0.0110515 0.0279547 -2.0268 4.58339 -0.529222 0.004 300 0 
891 1 1 0.00399273 -0.015716 0.00696205 0 0 0 -0.0504835 -0.00956585 0.0358899 0.0364728 0.0263006 -0.0562727 -3.74953 8.00049 -6.5463 0.004 300 0 
870 1 1 0.0147585 -0.015201 0.00855641 0 0 0 -0.0398993 0.0253266 0.0155525 0.0481441 -0.140287 0.118687 -10.1499 5.47183 -1.26674 0.004 300 0 
777 1 1 0.0349044 -0.0197571 0.00870185 0 0 0 -0.0104519 -0.00904154 -0.013575 -0.0585631 0.0071423 0.00436056 2.8753 5.14509 3.40647 0.004 300 0 
837 1 1 -0.0294256 -0.0145778 0.00791643 0 0 0 -0.0165442 -1.86728e-07 0.0137923 0.0422291 0.0109436 -0.0265307 -2.61197 10.1859 15.5599 0.004 300 0 
783 1 1 0.00539155 -0.00870407 0.010447 0 0 0 -0.0156449 -0.00952301 -0.0290939 -0.0141303 0.0178549 -0.0161302 -8.79183 -2.31161 -0.689942 0.004 300 0 
615 1 1 -0.0356245 -0.000784759 0.00986547 0 0 0 0.0103086 -0.016228 0.0185441 0.0375917 0.0114972 -0.0411461 0.489264 3.50449 -7.90836 0.004 300 0 
16 1 1 -0.0209012 0.00154478 0.00880331 0 0 0 0.0301044 0.0262803 0.0223456 -0.0181132 -0.0114963 0.0158485 7.76761 4.35063 -7.57178 0.004 300 0 
704 1 1 -0.010126 0.00394283 0.00717596 0 0 0 -0.0321823 0.047292 -0.00538325 0.00196258 -0.0215325 0.0180369 -1.34912 -9.27397 -9.77025 0.004 300 0 
303 1 1 0.0459247 0.00315257 0.00964127 0 0 0 -0.0138981 0.0262203 0.0247014 -0.0135481 0.0105454 -0.00175474 8.02003 1.63014 -1.39963 0.004 300 0 
523 1 1 -0.0390279 0.00765142 0.0102739 0 0 0 -0.0282905 -0.0514266 -0.00581287 -0.0145074 0.00262571 -0.00700212 0.908195 19.4535 -0.144291 0.004 300 0 
454 1 1 0.00125788 0.00709971 0.0094367 0 0 0 -0.0200997 -0.0411581 0.0197788 -0.0506082 -0.0191606 0.00243389 8.27715 -14.546 -11.1972 0.004 300 0 
31 1 1 0.0108776 0.00549007 0.0084978 0 0 0 0.000712863 0.0369108 0.035323 0.0212541 -0.0204188 -0.00501775 -2.36293 -6.14863 -2.38934 0.004 300 0 
135 1 1 0.0188058 0.00729945 0.00949588 0 0 0 -0.0287686 0.0239361 -0.0536816 0.0633576 -0.0109185 0.0745888 -0.218406 1.7597 3.45387 0.004 300 0 
651 1 1 -0.0438126 0.014207 0.00923232 0 0 0 -0.00772824 -0.0386816 -0.00825601 0.00974527 -0.0543905 0.00247805 7.22707 -3.94513 -7.27857 0.004 300 0 
43 1 1 -0.00628484 0.0134067 0.00969401 0 0 0 0.0484048 0.00493362 -0.00791927 0.00682128 -0.0101998 -0.0126346 -7.02121 -7.81056 -10.5283 0.004 300 0 
621 1 1 0.043755 0.014293 0.0093991 0 0 0 0.0039842 0.0113592 -0.00866315 0.00375814 0.0333469 -0.0328319 -3.44664 -4.36522 1.02965 0.004 300 0 
320 1 1 -0.00194519 0.0201305 0.00962169 0 0 0 0.00522467 0.0224346 -0.021301 0.0222231 -0.0272693 -0.0130114 -1.05937 -2.05173 4.57798 0.004 300 0 
726 1 1 -0.0251346 0.0198972 0.00686752 0 0 0 -0.0159547 -0.0241969 -0.0384097 0.00168458 0.00410894 -0.00793712 -3.7897 0.00569731 -4.32626 0.004 300 0 
7 1 1 0.0131115 0.0223336 0.00938315 0 0 0 0.017517 0.00131032 -0.00845792 -0.000692586 -0.00677481 0.015608 -2.96046 -2.94677 -2.0001 0.004 300 0 
83 1 1 0.0214426 0.0238281 0.00910123 0 0 0 0.0309294 -0.00936342 -0.0393036 0.00544031 -0.0139713 -0.0242905 -4.90074 -6.81965 -1.08641 0.004 300 0 
230 1 1 -0.00814503 0.0250806 0.0102422 0 0 0 -0.0203127 -0.00916914 -0.0142451 -0.0329551 0.0156562 0.000909796 -5.18852 0.841527 -2.28596 0.004 300 0 
747 1 1 -0.0334329 0.0316404 0.00935474 0 0 0 -0.000872434 0.00355325 -0.0390164 -0.0103352 -0.00393188 0.0455208 -3.80183 2.69024 0.0887182 0.004 300 0 
51 1 1 -0.0217504 0.0332244 0.00790597 0 0 0 -0.0052365 -0.00546324 -0.0236143 -0.015369 0.0121328 0.00308427 -3.83063 3.29367 2.24216 0.004 300 0 
116 1 1 -0.00958023 0.0392213 0.00836052 0 0 0 -0.0406985 -0.0129526 -0.0407735 0.0219587 -0.00741994 -0.0206248 1.5825 0.665147 -5.82241 0.004 300 0 
205 1 1 -0.000293174 -0.0460555 0.0110678 0 0 0 -0.0174396 -0.000122967 0.0262562 0.00305406 0.00796157 0.00127485 1.79092 -1.65856 1.66329 0.004 300 0 
836 1 1 0.00766528 -0.0453836 0.0109622 0 0 0 -0.0201364 0.0132006 -0.0249681 -0.0235633 -0.00535211 -0.00305525 -4.00686 3.00397 0.939325 0.004 300 0 
486 1 1 -0.0155764 -0.0402062 0.0105231 0 0 0 0.0470336 -0.0161557 -0.0545842 -0.0383964 -0.0511209 0.0302491 5.46808 -4.38097 2.2726 0.004 300 0 
311 1 1 -0.00821136 -0.044893 0.0107501 0 0 0 -0.0144639 0.0723007 -0.00869489 0.0217061 -0.0328031 0.00292526 4.06651 1.02536 -2.0268 0.004 300 0 
447 1 1 0.0178339 -0.042499 0.011786 0 0 0 -0.0230089 -0.0120122 0.0122901 -0.0222901 -0.000996337 -0.00638072 -2.5528 0.305531 0.302102 0.004 300 0 
538 1 1 -0.0292824 -0.0355443 0.0149395 0 0 0 0.00891085 0.0227902 -0.00401805 0.00172746 0.0106759 -0.0190979 0.547636 2.52042 1.03278 0.004 300 0 
400 1 1 -0.0241096 -0.0391941 0.0101298 0 0 0 0.00586129 -0.00394167 -0.0051014 -0.00316039 0.0261144 0.0252605 -1.80302 -2.5245 -2.60596 0.004 300 0 
810 1 1 -0.0100084 -0.0345565 0.0102361 0 0 0 0.0148009 0.0310544 -0.0172675 0.0781799 0.0240568 -0.0758841 0.889852 -3.42921 0.508975 0.004 300 0 
279 1 1 0.0111216 -0.0384987 0.0129852 0 0 0 -0.0194667 0.0195852 -0.0182072 -0.00485706 -0.00829641 -0.00321159 -2.49391 -5.62592 -4.29865 0.004 300 0 
110 1 1 0.0248291 -0.0387648 0.0116918 0 0 0 -0.0190455 -0.0100487 0.00543744 -0.034629 0.0040714 0.0217161 1.20205 1.30441 -0.132709 0.004 300 0 
188 1 1 -0.0176411 -0.0322736 0.0102145 0 0 0 0.0258277 0.0099472 -0.0207795 0.0858086 0.0479173 -0.049361 3.63983 -0.414044 -6.14419 0.004 300 0 
412 1 1 -0.00304444 -0.0322363 0.0132343 0 0 0 -0.0076214 -0.0340814 0.0268538 0.0524557 -0.0198031 -0.0017824 1.28061 -3.88172 -5.10192 0.004 300 0 
545 1 1 0.00464079 -0.0339765 0.0126074 0 0 0 -0.0161867 0.0154295 -0.00765174 0.0158033 0.0172802 0.0119036 4.31913 6.91388 6.5339 0.004 300 0 
100 1 1 0.0114312 -0.0299768 0.0118299 0 0 0 0.00079014 0.0136547 0.00616784 -0.011904 0.000565615 0.0150656 1.20955 -1.70463 -6.17806 0.004 300 0 
556 1 1 0.017898 -0.0345668 0.011366 0 0 0 0.00845631 -0.0334117 -0.0475051 0.0362473 0.029637 0.0120692 4.73135 6.44613 -2.65942 0.004 300 0 
32 1 1 0.0309671 -0.0341373 0.0135073 0 0 0 -0.0261678 0.00459227 0.00516067 0.0066777 0.00686454 -0.00971896 3.56283 -0.524774 5.95873 0.004 300 0 
5 1 1 -0.0387094 -0.0249191 0.0113724 0 0 0 0.0199158 -0.0220974 -0.00803303 -0.00235616 -0.0110644 0.0824135 -11.2843 -4.90942 5.49694 0.004 300 0 
415 1 1 -0.0249956 -0.0292376 0.0103702 0 0 0 0.0596385 -0.0101172 -0.0251801 -0.0403378 0.0165475 0.00684306 -0.219965 -8.37766 -6.64918 0.004 300 0 
446 1 1 -0.00964601 -0.0282493 0.0150323 0 0 0 0.0190594 0.00383473 0.0324605 -0.0304758 -0.0172723 0.0114792 -3.37159 3.68238 -4.77146 0.004 300 0 
266 1 1 -0.0290285 -0.0222471 0.0104997 0 0 0 0.0245536 0.0551145 -0.0032712 -0.0102557 -0.0211108 -0.00873506 -6.66042 -6.19802 3.00153 0.004 300 0 
487 1 1 -0.0207347 -0.0218612 0.0103907 0 0 0 0.0327416 -0.00520639 0.0103966 0.0199543 -0.0263352 -0.0163296 8.58068 -7.88208 6.9736 0.004 300 0 
655 1 1 0.00211046 -0.0212228 0.0123309 0 0 0 -0.0468023 0.0140144 0.033871 -0.0284569 0.00277277 -0.0301459 2.91995 3.53764 -0.667709 0.004 300 0 
243 1 1 0.0113291 -0.0220619 0.0108929 0 0 0 -0.0104717 0.0209447 -0.0392892 -0.0177365 -0.000305629 0.00561949 0.734353 6.19155 1.96058 0.004 300 0 
24 1 1 0.0292574 -0.0249918 0.0118234 0 0 0 -0.0259539 -0.0208131 -0.0188129 0.0284849 0.0323925 0.0244186 1.56775 -3.29394 6.37977 0.004 300 0 
528 1 1 0.0396149 -0.0235326 0.0137896 0 0 0 -0.0271625 -0.0155805 0.00959912 0.0056925 0.00401398 0.0164863 4.50587 -7.75441 -1.28474 0.004 300 0 
356 1 1 -0.03623 -0.0173972 0.010825 0 0 0 -0.0103597 0.0105452 -0.00844188 0.00541971 -0.018271 0.0451319 5.75118 -11.211 -8.01339 0.004 300 0 
112 1 1 -0.0261227 -0.0159082 0.0149844 0 0 0 0.0767132 0.00324215 -0.0194319 0.00037808 0.0284277 -0.0177477 14.5315 10.3292 7.2958 0.004 300 0 
739 1 1 -0.0114911 -0.018277 0.0115262 0 0 0 -0.0130535 0.0164642 0.0337833 -0.0163577 -0.00855162 0.0189724 -4.65951 0.414877 4.64951 0.004 300 0 
30 1 1 0.0088993 -0.0151147 0.0139713 0 0 0 -0.00833603 -0.0105878 0.0600073 0.0481243 0.00252503 -0.0182235 10.0306 3.43023 0.122288 0.004 300 0 
309 1 1 0.0233081 -0.0198901 0.0106571 0 0 0 0.00150248 0.0161748 -0.00569654 0.00244437 -0.0291642 0.008812 -1.60839 4.57536 -15.4666 0.004 300 0 
418 1 1 0.0421206 -0.0159268 0.0116776 0 0 0 0.00604599 -0.0300806 0.00602079 -0.0215228 -0.00846036 0.0195042 3.89516 -4.76932 -4.92373 0.004 300 0 
673 1 1 -0.043654 -0.0146234 0.0106376 0 0 0 -0.0477293 -0.03858 0.00243409 -0.00561482 0.0380091 0.0290838 6.86436 0.612867 6.78521 0.004 300 0 
445 1 1 -0.0179666 -0.0138766 0.0100329 0 0 0 -0.0405784 -0.0397141 -0.0345126 0.0201908 0.0564394 -0.0604655 -0.425996 7.30219 -4.11043 0.004 300 0 
64 1 1 0.00111559 -0.0137337 0.014778 0 0 0 0.000224165 0.0202453 0.0271407 -0.0206062 0.0211313 0.0421752 -3.45534 1.65359 2.18765 0.004 300 0 
332 1 1 0.0218734 -0.0118239 0.0102465 0 0 0 -0.0492879 -0.01902 -0.0157115 0.0302667 0.00279602 -0.0573943 5.81469 -0.120047 -8.15441 0.004 300 0 
374 1 1 0.0293588 -0.0146026 0.0112195 0 0 0 -0.00754852 0.0212285 -0.0548904 -0.0217274 0.0203388 0.0742259 -11.3062 5.46738 -14.8221 0.004 300 0 
388 1 1 -0.0352588 -0.00934827 0.0104695 0 0 0 0.0204193 -0.0265748 0.022103 -0.0161956 -0.0159749 0.0425787 -0.608251 -1.14935 -0.745459 0.004 300 0 
437 1 1 -0.0245244 -0.00895138 0.0108312 0 0 0 -0.0429966 0.0388196 -0.00207997 0.000275213 0.00636876 0.0317953 11.4055 6.43422 -6.81285 0.004 300 0 
482 1 1 -0.0166552 -0.00504048 0.01083 0 0 0 0.0304384 -0.0255405 0.00273396 -0.00386514 -0.0106768 0.000545352 0.980645 1.5212 -3.57317 0.004 300 0 
775 1 1 -0.0104553 -0.0104174 0.0109436 0 0 0 -0.026324 0.0254207 0.00131009 -0.00846757 -0.00360282 -0.00190245 -1.86516 -2.9148 -0.867172 0.004 300 0 
73 1 1 -0.00276074 -0.00788488 0.0109034 0 0 0 -0.0360388 -0.00207579 0.0287363 -0.00321404 0.00904728 0.0316341 2.74867 4.31445 5.06281 0.004 300 0 
194 1 1 0.0131806 -0.00747435 0.0102201 0 0 0 -0.0100897 -0.025512 0.000181044 0.0510101 0.0421426 -0.0281261 -2.02323 12.3412 6.2257 0.004 300 0 
832 1 1 0.0195222 -0.00566063 0.0146265 0 0 0 0.0263193 0.0230418 -0.0598378 -0.0105831 0.0844553 0.0506055 12.1082 4.41383 11.3387 0.004 300 0 
706 1 1 0.0274182 -0.00614871 0.0109748 0 0 0 -0.0638243 0.0168926 -0.0385285 -0.0468588 -0.017086 -0.0311054 -1.83884 10.9949 12.5385 0.004 300 0 
589 1 1 0.0348992 -0.00890829 0.010473 0 0 0 -0.0268296 0.0246308 0.00896169 -0.0117868 0.00176879 -0.0023215 -5.72904 -11.5712 -19.9465 0.004 300 0 
840 1 1 0.0455242 -0.00673865 0.0110984 0 0 0 0.00367147 0.0683356 0.00113276 -0.0194406 0.0177524 0.0140659 12.2043 -3.57334 0.647421 0.004 300 0 
717 1 1 -0.0425131 -0.00473435 0.0107774 0 0 0 -0.00518974 -0.0121382 0.000897231 0.00467087 0.0298876 0.022075 -8.4072 0.480258 14.6008 0.004 300 0 
370 1 1 -0.0278206 -0.00172855 0.0115556 0 0 0 0.010628 0.078134 0.0114756 0.0220829 -0.00948763 0.0145801 -3.60617 2.41295 3.77649 0.004 300 0 