ITEM: TIMESTEP
30400
ITEM: NUMBER OF ATOMS
891
ITEM: BOX BOUNDS mm mm mm
-0.05 0.05
-0.05 0.05
0 0.15
ITEM: ATOMS id type type x y z ix iy iz vx vy vz fx fy fz omegax omegay omegaz radius f_Temp[0] f_heatFlux[0] 
199 1 1 -0.00444377 -0.0458158 0.00397435 0 0 0 -4.96205e-09 -7.9583e-07 -1.47121e-06 -5.67982e-07 -6.94805e-07 -2.50973e-07 -0.000174891 3.77335e-05 -5.19755e-05 0.004 465.453 4.60603 
873 1 1 -0.0201484 -0.0414789 0.0039016 0 0 0 1.39396e-07 -5.12728e-07 -1.56826e-07 -6.09812e-08 -3.96854e-07 -2.68655e-07 2.39039e-05 3.31758e-05 -8.34007e-05 0.004 365.657 5.93274 
485 1 1 -0.0126796 -0.0442534 0.00397264 0 0 0 5.35619e-08 -4.92979e-07 -8.48522e-07 -4.67851e-07 -4.78357e-08 -2.79674e-07 -9.44917e-05 0.000182449 -5.74781e-05 0.004 396.367 7.15339 
850 1 1 0.00335642 -0.0441759 0.00394116 0 0 0 -3.77793e-07 -2.1862e-06 -1.76159e-06 -3.46021e-07 -7.74504e-07 5.34306e-08 0.000339766 -0.000191028 3.97505e-05 0.004 552.268 -0.293395 
186 1 1 0.0114401 -0.0445988 0.00392827 0 0 0 1.1714e-08 -1.26129e-06 -1.68438e-06 -1.65644e-07 -4.06e-07 -8.76565e-08 4.25218e-05 -0.000223322 3.06571e-05 0.004 671.795 -5.60822 
560 1 1 0.018969 -0.0420006 0.00394676 0 0 0 6.93304e-07 -1.16861e-06 -1.46554e-06 -1.38558e-07 -4.50036e-07 -2.19745e-07 -3.58267e-05 8.86414e-05 3.30088e-05 0.004 711.462 -6.00122 
102 1 1 -0.0147501 -0.0357331 0.00386312 0 0 0 6.47569e-07 -1.52658e-06 -9.56011e-07 -4.13653e-08 -7.11547e-07 -7.80198e-07 0.000197124 0.000176318 -0.00010597 0.004 395.264 5.36264 
88 1 1 -0.00730761 -0.0383837 0.00392727 0 0 0 1.48649e-07 -1.74335e-06 -1.74568e-06 -3.26885e-07 -1.00894e-06 -1.40293e-07 0.000285227 3.62746e-06 -5.9734e-05 0.004 447.679 4.61931 
776 1 1 0.00520385 -0.0354368 0.00395024 0 0 0 4.28072e-07 -3.28124e-06 -3.15069e-06 -7.79203e-07 -1.55416e-06 -1.01733e-06 0.000510259 -8.21942e-05 0.000153865 0.004 611.343 -2.21765 
410 1 1 0.0130236 -0.0368131 0.00392573 0 0 0 7.86051e-07 -2.2348e-06 -3.02396e-06 -5.59195e-07 -9.82261e-07 -5.1964e-07 0.000117748 1.22377e-05 2.58642e-05 0.004 677.949 -5.01322 
282 1 1 0.025876 -0.0381319 0.00388527 0 0 0 5.72054e-07 -1.67903e-06 -1.62131e-06 -1.78613e-07 -9.48105e-07 -3.88901e-07 6.84332e-05 -2.58995e-05 -6.16322e-05 0.004 752.981 -5.26031 
682 1 1 -0.0302016 -0.0348779 0.00393465 0 0 0 3.27793e-07 -3.28094e-07 2.59756e-08 4.2384e-08 -2.47929e-07 -1.87999e-07 2.74613e-05 -1.09878e-05 -7.22801e-05 0.004 325.45 3.61661 
251 1 1 -0.0224189 -0.0338476 0.00392333 0 0 0 7.43166e-07 -7.59941e-07 -4.49497e-08 -9.43756e-08 -7.1124e-07 -6.00816e-07 5.048e-05 0.000133137 -0.000103514 0.004 353.942 5.06245 
770 1 1 -0.00204753 -0.0321408 0.00393965 0 0 0 6.90538e-07 -3.63075e-06 -2.56449e-06 -6.79876e-07 -1.69515e-06 -5.51314e-07 0.000542989 0.000139823 -0.000356594 0.004 541.17 0.668275 
883 1 1 0.018166 -0.0307535 0.00390024 0 0 0 1.64142e-06 -3.56465e-06 -4.15491e-06 -6.91346e-07 -1.97361e-06 -1.02876e-06 0.00064411 0.000597872 -0.000207001 0.004 721.013 -5.28744 
838 1 1 0.0320336 -0.033109 0.00396073 0 0 0 1.07946e-06 -1.47928e-06 -2.48867e-06 -1.34585e-07 -8.19662e-07 -4.73487e-07 -0.000295165 4.65987e-05 4.18099e-05 0.004 774.83 -3.96274 
617 1 1 -0.0372521 -0.0271215 0.00391646 0 0 0 6.17343e-07 -7.86014e-08 5.30031e-07 5.05664e-08 -2.59118e-07 -1.8568e-07 3.73018e-05 1.19447e-05 -8.03004e-05 0.004 308.881 1.96749 
824 1 1 -0.0292998 -0.0270298 0.00392985 0 0 0 1.2409e-06 -8.7863e-07 4.37912e-07 2.16934e-07 -2.3662e-07 -5.26353e-07 0.000175523 0.000206003 -0.000147755 0.004 318.015 2.98838 
571 1 1 -0.0202615 -0.0262215 0.00393286 0 0 0 2.00153e-06 -1.69106e-06 -2.92813e-07 -3.51652e-07 -6.9593e-07 -1.09571e-06 0.000215475 0.000364971 -0.000254392 0.004 350.719 5.01129 
861 1 1 -0.00959294 -0.0297304 0.003897 0 0 0 1.52605e-06 -2.36102e-06 -1.66905e-06 -4.28494e-07 -7.48983e-07 -9.234e-07 0.000257542 0.000304163 -6.59807e-05 0.004 441.865 4.35818 
434 1 1 0.0103455 -0.0293807 0.00393743 0 0 0 9.51165e-07 -3.25404e-06 -3.60179e-06 -7.75124e-07 -1.56864e-06 -9.86696e-07 0.000123408 -0.000125493 7.25141e-05 0.004 664.321 -4.13714 
103 1 1 0.0311547 -0.0252347 0.00394363 0 0 0 9.2805e-07 -2.29983e-06 -3.55124e-06 -2.91187e-07 -1.099e-06 -9.182e-07 0.000289933 -0.000346132 0.000210953 0.004 779.206 -3.32941 
769 1 1 -0.041344 -0.0202818 0.0039823 0 0 0 6.83279e-07 -4.66979e-08 5.91011e-07 1.07108e-07 -1.60132e-07 5.11081e-08 9.14458e-05 -7.69766e-05 -6.29098e-05 0.004 304.686 1.26687 
94 1 1 -0.0333714 -0.0202163 0.0039437 0 0 0 1.61198e-06 -4.53293e-07 1.08558e-06 -3.2355e-08 -3.27032e-07 -4.26189e-07 5.2938e-05 6.68807e-05 -0.000109118 0.004 311.299 2.16207 
40 1 1 -0.025401 -0.0201464 0.00391762 0 0 0 2.37519e-06 -1.43746e-06 8.9466e-07 -2.26929e-07 -3.00969e-07 -1.0565e-06 0.000122178 0.00025501 -8.72274e-05 0.004 326.981 3.55732 
19 1 1 -0.00865071 -0.0218804 0.00393967 0 0 0 2.18472e-06 -2.37545e-06 -1.31579e-06 -8.34018e-07 -5.54831e-07 -6.52035e-07 0.000166849 0.000508816 -8.19279e-05 0.004 444.091 4.43947 
442 1 1 -0.000436958 -0.0218499 0.00393585 0 0 0 1.76003e-06 -3.03296e-06 -2.8837e-06 -1.19974e-06 -1.14895e-06 -4.87284e-08 0.00047719 0.000391496 -0.0001978 0.004 550.91 0.586938 
259 1 1 0.00753192 -0.0220001 0.00392512 0 0 0 1.42596e-06 -4.05848e-06 -3.31602e-06 -1.14844e-06 -2.19404e-06 -3.3954e-07 0.000548345 6.55224e-05 -4.69118e-05 0.004 645.839 -3.39559 
512 1 1 0.0153883 -0.0232356 0.00397835 0 0 0 1.50078e-06 -3.55073e-06 -3.54336e-06 -6.816e-07 -1.87471e-06 -1.28302e-06 0.000343782 0.000373238 -0.000148005 0.004 713.52 -4.73413 
470 1 1 0.0232616 -0.0243589 0.00390816 0 0 0 1.25487e-06 -3.77714e-06 -5.41143e-06 -5.72602e-07 -2.29354e-06 -1.58266e-06 0.000657671 8.19709e-05 2.05333e-05 0.004 756.286 -4.62262 
451 1 1 0.0390293 -0.0244875 0.00392048 0 0 0 8.6252e-07 -3.19752e-07 -7.89697e-07 -3.22063e-07 -3.99249e-07 -2.538e-07 1.28426e-05 -2.56017e-05 0.000138524 0.004 790.198 -2.07976 
531 1 1 -0.0164596 -0.0192004 0.00396126 0 0 0 2.66974e-06 -2.05224e-06 -2.43581e-07 -3.84607e-07 -5.69714e-07 -6.68324e-07 0.000453551 0.000690006 -1.37556e-06 0.004 359.915 5.47798 
229 1 1 0.0202059 -0.0169136 0.00386876 0 0 0 3.42291e-06 -3.68417e-06 -7.01657e-06 -1.05762e-06 -2.27395e-06 -2.41676e-06 0.000259757 0.000457672 -0.000197067 0.004 744.578 -4.6152 
734 1 1 0.0280521 -0.017942 0.00394397 0 0 0 1.44352e-06 -3.30454e-06 -4.62945e-06 -1.20274e-06 -1.72232e-06 -1.10368e-06 0.000305394 -0.000467091 -4.98005e-05 0.004 777.061 -3.19533 
635 1 1 0.0425981 -0.0174495 0.00392192 0 0 0 1.46241e-06 -9.91945e-08 -1.30003e-06 3.67225e-07 -5.90006e-07 -4.889e-07 -9.1325e-05 0.000428791 -0.000192171 0.004 796.559 -0.963392 
87 1 1 -0.0448224 -0.0104639 0.0039142 0 0 0 9.02865e-07 -2.3456e-07 7.13354e-07 -7.22659e-08 6.37915e-08 -6.3638e-08 -2.31727e-05 0.000101218 9.91497e-05 0.004 301.782 0.582422 
406 1 1 -0.0373951 -0.013391 0.00396017 0 0 0 1.63691e-06 -1.99477e-07 9.38901e-07 1.52546e-07 -1.81082e-07 -2.01484e-07 -1.04471e-06 0.000241992 -6.49118e-05 0.004 304.614 1.18313 
224 1 1 -0.023058 -0.0126019 0.00387962 0 0 0 3.01051e-06 -2.13986e-06 9.41336e-07 -1.30057e-06 -2.11714e-07 -1.1716e-06 0.000452905 0.000691683 5.76959e-06 0.004 339.584 3.95169 
751 1 1 -0.0102996 -0.0141545 0.00396946 0 0 0 2.31631e-06 -2.25513e-06 -1.0922e-06 -1.02701e-06 -6.31037e-07 -5.3324e-07 0.000124028 -1.0848e-05 3.91082e-05 0.004 419.466 4.61824 
622 1 1 -0.00273387 -0.0117409 0.00388525 0 0 0 3.13207e-06 -2.68818e-06 -2.85144e-06 -8.25859e-07 -7.00547e-07 -7.06322e-07 0.000472381 0.000938892 -0.000337591 0.004 502.881 1.79862 
128 1 1 0.00951067 -0.010685 0.0038846 0 0 0 3.60595e-06 -3.93994e-06 -6.40479e-06 -1.21875e-06 -1.73607e-06 -2.14315e-06 0.000770666 0.000537686 0.000194646 0.004 674.216 -4.30909 
68 1 1 0.0262808 -0.010211 0.00395439 0 0 0 3.18185e-06 -2.49342e-06 -5.45754e-06 -1.43372e-06 -1.5835e-06 -1.64646e-06 0.000261526 7.97605e-05 -9.2714e-05 0.004 779.924 -3.04001 
791 1 1 0.0340945 -0.0118532 0.00392801 0 0 0 1.53196e-06 -1.98854e-06 -2.7876e-06 -1.74623e-06 -1.11994e-06 -1.3435e-06 -0.000114111 0.000181447 -0.00076373 0.004 792.977 -1.5934 
354 1 1 -0.0380748 -0.00550396 0.00392043 0 0 0 2.04199e-06 -3.94658e-07 1.63952e-06 -2.97256e-07 -1.85378e-07 -1.59493e-07 0.000128308 0.000311462 -0.000101649 0.004 304.202 1.05078 
725 1 1 -0.0304901 -0.00800531 0.00392521 0 0 0 2.80595e-06 -9.18814e-07 1.05206e-06 -2.47457e-07 -1.17655e-07 -4.62931e-07 -1.71346e-05 0.000527945 0.000202091 0.004 310.34 1.96843 
353 1 1 -0.0161288 -0.00879809 0.00391144 0 0 0 2.40765e-06 -2.32774e-06 -1.89282e-07 -1.18472e-06 -7.52192e-07 -6.30482e-07 0.000465466 0.000311687 -6.54325e-05 0.004 377.6 4.65066 
391 1 1 -0.0085766 -0.00639748 0.00391358 0 0 0 1.80159e-06 -1.75684e-06 -8.63671e-07 -1.47856e-06 -6.25507e-07 -3.75487e-07 -2.34279e-05 9.51206e-05 0.000251337 0.004 441.272 3.98076 
683 1 1 0.0173533 -0.00945628 0.00390987 0 0 0 3.28845e-06 -3.18111e-06 -5.59206e-06 -1.40445e-06 -2.0206e-06 -1.11415e-06 0.000830635 0.000331174 3.16802e-06 0.004 735.407 -4.82012 
690 1 1 0.0385537 -0.00520142 0.00390023 0 0 0 1.41245e-06 -1.59475e-07 -3.5419e-06 -1.03168e-06 -9.95268e-07 -1.73273e-06 -0.000131923 0.000161314 -0.000187665 0.004 796.688 -0.872296 
10 1 1 0.0449635 -0.00990888 0.00397399 0 0 0 8.2199e-07 -3.45892e-07 -1.33565e-06 -1.28158e-07 -6.02502e-07 -5.51631e-07 0.000140633 -0.000158121 0.000147215 0.004 798.351 -0.544694 
402 1 1 -0.0460169 -0.00264172 0.00392182 0 0 0 1.11281e-06 -3.77605e-07 1.23994e-06 -1.86658e-07 6.68282e-09 -6.19655e-08 0.000143872 -6.4587e-06 -0.000142833 0.004 302.077 0.615548 
761 1 1 -0.0294744 -0.000168333 0.00392563 0 0 0 2.50666e-06 -1.17457e-06 1.7743e-06 -6.40035e-07 -1.39523e-07 -3.60612e-07 0.000196349 0.000396745 -4.9624e-05 0.004 317.606 2.63405 
293 1 1 -0.0229324 -0.00466872 0.0039595 0 0 0 2.56063e-06 -1.68562e-06 1.11109e-06 -1.13394e-06 -3.52616e-07 -6.24282e-07 -1.79753e-05 0.000221623 -0.000105679 0.004 337.782 4.03147 
384 1 1 -0.0147601 -0.000891508 0.0039815 0 0 0 0.000333904 -0.000724945 -1.69784e-09 -7.32788e-14 1.59096e-13 1.6195e-09 0.181657 0.0836696 0.226562 0.004 301.492 0 
378 1 1 0.0013061 -0.00490406 0.00392907 0 0 0 3.21972e-06 -2.05835e-06 -2.88724e-06 -1.3102e-06 -9.98193e-07 -1.28858e-06 0.000636853 0.000948626 0.00045373 0.004 557.675 -0.494235 
390 1 1 0.0103707 -0.0027653 0.00396887 0 0 0 2.90278e-06 -2.89192e-06 -3.99861e-06 -1.00547e-06 -1.4834e-06 -9.07578e-07 0.000462995 0.000743067 2.7584e-05 0.004 694.568 -5.43949 
411 1 1 0.0223603 -0.00329285 0.00397626 0 0 0 3.33488e-06 -2.12097e-06 -5.57297e-06 -1.78794e-06 -1.17857e-06 -1.40394e-06 -0.000263906 0.000694231 4.43044e-05 0.004 768.12 -4.04151 
342 1 1 0.0307348 -0.00361665 0.00397529 0 0 0 1.2174e-06 -1.17451e-06 -2.51851e-06 -7.55918e-07 -1.08376e-06 -1.13225e-06 0.000210562 3.23856e-05 0.000465831 0.004 792.649 -1.61706 
262 1 1 0.0460221 -0.00206505 0.00395833 0 0 0 1.11769e-06 2.19345e-07 -1.01938e-06 -2.11051e-07 -7.23853e-08 -4.87006e-07 -0.000222447 9.2389e-05 -0.00028737 0.004 798.446 -0.518622 
261 1 1 -0.0398214 0.00224601 0.00393476 0 0 0 2.0858e-06 -5.04011e-07 2.20849e-06 -3.51262e-07 -1.06732e-07 1.00473e-07 7.38047e-05 8.73196e-05 4.2991e-05 0.004 304.75 1.07633 
666 1 1 -0.00454675 0.000451433 0.00395604 0 0 0 1.60406e-06 -1.8656e-06 -4.60254e-07 -2.25187e-06 -7.20797e-07 1.06217e-07 9.72276e-05 -8.03264e-05 -0.000175792 0.004 487.968 2.66406 
815 1 1 0.00434369 0.00243561 0.00392711 0 0 0 2.51339e-06 -1.82899e-06 -2.53273e-06 -2.16325e-06 -1.13751e-06 -6.16085e-07 -6.42136e-05 0.000512402 -0.000183715 0.004 615.831 -2.87673 
306 1 1 0.01637 0.00247667 0.0039581 0 0 0 2.44724e-06 -2.59539e-06 -4.56313e-06 -1.91934e-06 -1.60577e-06 -8.6105e-07 0.00075222 0.000478607 0.00024159 0.004 744.473 -5.40558 
178 1 1 0.0241042 0.00444176 0.00386115 0 0 0 2.56111e-06 -1.14391e-06 -5.38461e-06 -1.68756e-06 -7.92426e-07 -1.23943e-06 0.000709351 0.000482163 0.000215642 0.004 770.321 -3.83538 
862 1 1 0.0320656 0.00423368 0.00393097 0 0 0 1.77131e-06 -1.05078e-06 -3.90115e-06 -1.13567e-06 -6.73638e-07 -8.96652e-07 -0.000118614 -0.000220381 -0.000261732 0.004 789.189 -2.03886 
661 1 1 0.0398756 0.0029147 0.0039468 0 0 0 1.6821e-06 2.1076e-07 -2.101e-06 -2.45581e-07 1.02859e-07 -6.06514e-07 -0.000405709 0.000133067 0.000240924 0.004 796.355 -0.940676 
677 1 1 -0.0453782 0.0078854 0.00393641 0 0 0 1.0703e-06 -3.02088e-07 1.09399e-06 1.88203e-08 3.15205e-09 7.95463e-08 -3.48595e-05 4.16704e-06 -1.80167e-05 0.004 302.105 0.635415 
12 1 1 -0.0333161 0.0067196 0.00393696 0 0 0 2.4334e-06 -7.44433e-07 2.41329e-06 -3.53242e-07 -1.60356e-07 1.3918e-07 -6.39266e-05 0.000224319 7.75485e-06 0.004 312.2 2.05343 
420 1 1 -0.0254 0.00664838 0.00392687 0 0 0 2.57373e-06 -1.18517e-06 2.05158e-06 -7.04605e-07 -2.33451e-07 1.50915e-07 0.000162401 0.000120755 1.6281e-06 0.004 330.706 3.49082 
654 1 1 -0.0175134 0.00720948 0.00387212 0 0 0 2.765e-06 -1.6531e-06 1.65012e-06 -1.12864e-06 -3.2341e-07 8.23281e-07 0.000258026 0.000358044 -6.74226e-05 0.004 366.81 4.71967 
145 1 1 -0.00454406 0.00836538 0.00386311 0 0 0 2.31136e-06 -1.76348e-06 -1.73346e-07 -1.99993e-06 -8.60348e-07 6.31052e-07 0.000302897 0.000483558 2.95547e-05 0.004 485.705 2.95284 
624 1 1 0.0451449 0.00890653 0.00390657 0 0 0 1.70691e-06 4.26312e-07 -1.66881e-06 -2.17485e-07 8.80278e-08 -3.09926e-07 3.24479e-05 0.000294328 -3.74966e-05 0.004 797.842 -0.662782 
613 1 1 -0.0372991 0.0135339 0.00384344 0 0 0 2.18536e-06 -4.57547e-07 2.24005e-06 4.44424e-08 -1.47564e-07 4.02981e-07 7.65968e-06 0.000387807 -6.74523e-05 0.004 306.273 1.38533 
265 1 1 -0.0293062 0.0135429 0.00396371 0 0 0 2.09898e-06 -7.64365e-07 1.7259e-06 -3.81803e-07 -1.91338e-07 3.65879e-08 8.09094e-06 3.6791e-07 -4.41888e-05 0.004 318.732 2.88315 
273 1 1 -0.0213694 0.0141274 0.00392939 0 0 0 2.08257e-06 -1.09429e-06 1.99436e-06 -8.58244e-07 -2.50638e-07 3.7245e-07 -0.000113312 0.000283368 8.71101e-05 0.004 339.221 4.24527 
492 1 1 -0.01145 0.0123712 0.00398079 0 0 0 2.3202e-06 -1.63763e-06 1.40322e-06 -1.46428e-06 -2.7828e-07 7.74273e-07 0.00027079 0.000298355 8.2129e-05 0.004 412.853 5.88853 
234 1 1 0.00585286 0.010393 0.0039289 0 0 0 2.20879e-06 -1.14087e-06 -2.11266e-06 -2.02782e-06 -1.38141e-06 1.92555e-07 0.000469531 0.000310444 3.81846e-05 0.004 607.114 -1.92505 
160 1 1 0.0142843 0.0106356 0.00390957 0 0 0 2.36405e-06 -7.31554e-07 -3.28956e-06 -1.78245e-06 -1.64028e-06 -2.00776e-07 0.000372366 0.000335538 -0.000308033 0.004 708.137 -4.61854 
484 1 1 0.0220893 0.0120738 0.00390119 0 0 0 1.52647e-06 -5.38473e-07 -2.9855e-06 -1.25849e-06 -6.94073e-07 2.09327e-07 -6.78649e-05 -8.06073e-05 9.62856e-05 0.004 757.821 -4.11911 
743 1 1 0.0300184 0.0126216 0.00398127 0 0 0 1.3504e-06 8.23353e-07 -9.54913e-07 -8.06551e-07 -2.5749e-07 1.54403e-07 -0.000116629 -8.02811e-05 0.000284788 0.004 780.376 -2.88802 
514 1 1 0.0379536 0.0130186 0.00386905 0 0 0 1.84464e-06 9.22297e-07 -2.37596e-06 -5.19999e-07 1.39043e-07 -7.71173e-08 -0.000258346 0.000440933 -0.000331193 0.004 792.757 -1.52479 
530 1 1 -0.0159002 0.0198648 0.00392795 0 0 0 1.9713e-06 -1.44606e-06 1.4264e-06 -6.69224e-07 -8.43606e-07 1.11397e-06 0.000162868 0.000215843 -6.51278e-05 0.004 365.375 5.08546 
227 1 1 -0.00736502 0.0192084 0.00396594 0 0 0 1.95048e-06 -1.16203e-06 1.35938e-06 -1.14645e-06 -5.97166e-07 1.10424e-06 0.000174222 0.000364028 7.58076e-06 0.004 455.66 4.85422 
392 1 1 -0.000498621 0.0151513 0.00394445 0 0 0 2.04626e-06 -1.30951e-06 8.1035e-09 -1.43455e-06 -1.19004e-06 1.13017e-06 0.00018873 0.000292368 7.15597e-05 0.004 530.017 1.54288 
493 1 1 0.0098584 0.0172532 0.00394646 0 0 0 1.83794e-06 -2.43103e-07 -1.47478e-06 -1.50997e-06 -1.55966e-06 9.07739e-07 -8.81587e-05 0.000233515 0.000165103 0.004 655.845 -3.34826 
34 1 1 0.0176357 0.0187852 0.00394099 0 0 0 1.21197e-06 2.33278e-07 -2.37483e-06 -1.38412e-06 -8.32794e-07 9.97879e-07 -0.00012296 9.40624e-05 -6.00351e-05 0.004 720.143 -4.39242 
206 1 1 0.0255397 0.0192353 0.00396992 0 0 0 1.04474e-06 3.48439e-08 -1.62653e-06 -9.19258e-07 -3.90828e-07 7.28838e-07 2.90553e-06 -0.00026964 -7.86054e-06 0.004 764.006 -3.71981 
104 1 1 0.0334175 0.0199346 0.00389649 0 0 0 1.79308e-06 7.03221e-07 -1.75612e-06 -7.63194e-07 -1.12577e-07 4.34042e-07 -0.000193936 0.000443806 0.000152896 0.004 784.237 -2.51389 
809 1 1 -0.0412058 0.0204949 0.00395497 0 0 0 9.04689e-07 -1.59748e-07 1.03959e-06 1.01833e-07 -3.71967e-08 2.79882e-07 -0.000166269 5.25135e-05 0.000132586 0.004 303.379 0.984134 
773 1 1 -0.0331523 0.0204531 0.00393522 0 0 0 2.03354e-06 -8.30238e-07 2.32068e-06 -6.26601e-08 -3.39977e-07 5.59365e-07 -4.25551e-05 0.000403837 0.000165337 0.004 311.989 2.33664 
792 1 1 0.00347678 0.0219735 0.00392105 0 0 0 1.51324e-06 -7.71979e-07 -2.18197e-07 -1.15789e-06 -1.34455e-06 9.84107e-07 7.50557e-05 0.000273871 7.52472e-05 0.004 587.461 -1.024 
718 1 1 0.0413199 0.0203659 0.00392988 0 0 0 1.10091e-06 4.81263e-07 -1.21372e-06 -4.45529e-07 7.24608e-08 2.93502e-07 2.88018e-06 -2.98559e-05 -7.26942e-06 0.004 792.992 -1.56898 
101 1 1 -0.0371146 0.0272995 0.00390401 0 0 0 1.11845e-06 -7.8681e-07 1.21426e-06 2.00947e-07 -2.738e-07 3.68207e-07 9.17926e-05 8.02219e-05 -6.94831e-05 0.004 307.965 1.82871 
246 1 1 -0.0290567 0.0272807 0.0039827 0 0 0 9.9068e-07 -3.80522e-07 1.01318e-06 -2.54616e-07 -2.18914e-07 4.28915e-07 -8.8132e-05 -8.17484e-05 6.83192e-05 0.004 314.898 2.73268 
331 1 1 -0.0212281 0.0257799 0.00390018 0 0 0 1.6296e-06 -9.32356e-07 2.05065e-06 -2.03742e-07 -5.38683e-07 1.03733e-06 0.000138495 0.000225164 -6.71973e-05 0.004 340.399 4.19705 
846 1 1 -0.0134708 0.0274168 0.00397479 0 0 0 1.8446e-06 -1.49998e-06 1.38221e-06 -3.37347e-07 -1.13497e-06 1.00465e-06 0.000276119 0.000319567 3.78024e-05 0.004 388.079 4.77179 
348 1 1 -0.00329916 0.0260612 0.00393373 0 0 0 1.69072e-06 -9.50407e-07 1.03454e-06 -4.25707e-07 -9.68204e-07 1.28064e-06 2.21031e-05 0.000382555 6.40879e-05 0.004 509.645 2.22523 
786 1 1 0.00840354 0.0281551 0.00389683 0 0 0 8.80199e-07 -6.20082e-07 -5.26763e-07 -7.37355e-07 -1.34097e-06 1.59017e-06 0.000163475 0.00010736 -1.96798e-06 0.004 639.543 -3.20094 
316 1 1 0.0162833 0.0272928 0.00390629 0 0 0 8.52155e-07 2.22115e-07 -1.0331e-06 -8.69249e-07 -8.83275e-07 1.13283e-06 4.79435e-05 7.81838e-05 0.000107912 0.004 716.171 -4.95574 
495 1 1 0.0288861 0.0264618 0.00396715 0 0 0 1.14248e-06 2.04912e-07 -1.15937e-06 -8.692e-07 -4.7442e-07 7.11707e-07 -9.96963e-05 7.33062e-05 -4.11917e-05 0.004 776.577 -3.4405 
863 1 1 0.0367263 0.0277633 0.00392936 0 0 0 8.06011e-07 1.50795e-07 -6.55204e-07 -5.1275e-07 -6.92981e-08 3.79003e-07 1.07191e-06 7.35631e-05 9.59508e-05 0.004 789.948 -2.15143 
511 1 1 -0.00761835 0.0327132 0.00388552 0 0 0 1.4063e-06 -1.18979e-06 1.42765e-06 -1.45838e-07 -1.08032e-06 1.33739e-06 0.000204688 0.000224477 8.93496e-05 0.004 471.145 3.32061 
722 1 1 0.00164033 0.0322875 0.00396634 0 0 0 1.00689e-06 -5.39918e-07 2.08591e-07 -5.87154e-07 -1.07014e-06 1.24379e-06 7.33679e-05 0.000115865 2.22704e-05 0.004 568.678 -0.606584 
2 1 1 0.0229311 0.031696 0.00396243 0 0 0 1.05337e-06 2.07744e-07 -1.1384e-06 -1.18446e-06 -6.73791e-07 1.00176e-06 -3.63847e-06 0.000146384 2.85478e-05 0.004 752.557 -5.38638 
254 1 1 0.0304314 0.0344899 0.0039815 0 0 0 0.000481599 -0.000706181 -1.18973e-06 3.30859e-08 7.69594e-09 2.16871e-06 0.176945 0.120687 -0.0211551 0.004 798.547 0 
257 1 1 -0.0296322 0.0352231 0.00395613 0 0 0 6.57889e-07 -6.49313e-07 8.72489e-07 -3.7152e-09 -4.65727e-07 5.03996e-07 0.000129693 -1.41897e-05 -3.99118e-05 0.004 315.553 3.03858 
582 1 1 -0.0157655 0.0356206 0.00393204 0 0 0 1.71916e-06 -7.18924e-07 1.54386e-06 3.15653e-07 -9.07376e-07 1.53751e-06 4.74947e-05 0.000371806 0.000175368 0.004 351.091 5.4796 
255 1 1 -0.00267125 0.038932 0.00391146 0 0 0 5.39391e-07 -6.40705e-07 9.83793e-07 -3.94637e-07 -8.54517e-07 1.57445e-06 9.20593e-05 0.000126911 0.000111476 0.004 514.244 1.64077 
887 1 1 0.00812084 0.0373183 0.00392888 0 0 0 6.83637e-07 -3.41714e-07 8.52824e-08 -7.61822e-07 -9.41678e-07 1.0937e-06 6.79895e-05 0.000156416 0.000137345 0.004 667.219 -5.40619 
719 1 1 0.0157853 0.0351951 0.00398363 0 0 0 6.00997e-07 5.78668e-08 -4.40644e-07 -6.09665e-07 -4.66093e-07 6.07524e-07 5.3901e-05 4.13374e-05 1.01067e-05 0.004 721.933 -5.90907 
21 1 1 0.0234243 0.0396338 0.00391497 0 0 0 3.84845e-07 6.06581e-08 -4.35158e-07 -2.12532e-07 -1.97168e-07 3.30042e-07 6.45016e-05 6.53418e-05 7.542e-05 0.004 755.953 -5.13526 
325 1 1 -0.0222388 0.0402984 0.00393951 0 0 0 5.91477e-07 -5.09559e-07 8.14556e-07 1.51425e-07 -4.85115e-07 6.96749e-07 -5.63762e-05 2.45999e-05 7.71703e-05 0.004 339.916 5.15791 
595 1 1 -0.014931 0.0435393 0.00398254 0 0 0 2.95448e-07 -1.41665e-07 4.77298e-07 -2.40484e-08 -2.08835e-07 6.30808e-07 -0.000117795 2.12044e-05 6.75292e-05 0.004 375.849 5.43892 
568 1 1 0.0162912 0.0430934 0.00392629 0 0 0 2.06752e-07 1.83e-09 -1.52466e-07 -1.70638e-07 -3.30525e-07 3.22135e-07 1.50981e-06 1.95008e-05 2.29932e-05 0.004 717.637 -5.64724 
387 1 1 -0.00719691 0.045487 0.00389932 0 0 0 2.21712e-08 -4.62047e-07 6.11986e-07 -2.88445e-07 -4.58202e-07 9.0727e-07 -3.8486e-05 -3.19228e-05 9.67713e-06 0.004 473.797 3.29026 
852 1 1 0.000758889 0.0460615 0.00397617 0 0 0 8.6639e-08 -1.31345e-07 3.94409e-07 -2.47551e-07 -2.18091e-07 7.52206e-07 -8.50522e-05 5.85213e-05 2.76288e-05 0.004 556.489 -0.496929 
157 1 1 0.00865318 0.0452493 0.00389824 0 0 0 6.95012e-08 -1.27172e-07 1.23694e-07 -5.03655e-07 -6.4628e-07 7.30799e-07 1.98072e-06 3.65392e-05 2.17081e-05 0.004 653.233 -4.48658 
400 1 1 -0.024752 -0.0387964 0.00974418 0 0 0 7.5497e-07 -6.65618e-07 -1.38519e-08 -4.0378e-08 -5.24962e-07 -3.25064e-07 6.60832e-05 4.70151e-05 -6.43423e-05 0.004 336.947 4.9448 
606 1 1 -0.000653933 -0.0387266 0.00813892 0 0 0 6.16933e-07 -3.90831e-06 -4.19058e-06 -1.3684e-07 -1.27569e-06 -1.98403e-07 -0.000141122 0.000469362 -0.000306676 0.004 545.736 0.661648 
724 1 1 -0.0339143 -0.0311598 0.00984802 0 0 0 1.23735e-06 -5.10466e-07 3.58428e-07 -2.67114e-07 -6.10695e-07 -3.21899e-07 6.30876e-05 0.000212633 -0.00010393 0.004 313.667 2.56903 
183 1 1 0.0251947 -0.0311656 0.00751475 0 0 0 1.51073e-06 -3.54305e-06 -6.21822e-06 -6.49636e-07 -1.89103e-06 -1.70468e-06 -0.000498406 -7.51658e-05 5.91294e-05 0.004 759.683 -4.64838 
544 1 1 -0.0140217 -0.0253028 0.00874966 0 0 0 4.56206e-06 -4.64669e-06 -1.35047e-06 -1.00362e-06 -1.56938e-06 -1.92788e-06 0.000173813 0.000333052 -0.000103396 0.004 393.123 4.97551 
29 1 1 -0.00450627 -0.0263793 0.0090073 0 0 0 4.23632e-06 -5.11976e-06 -4.66957e-06 -1.20655e-06 -1.21941e-06 -1.61241e-06 0.000610144 0.00067565 -0.000156758 0.004 483.433 3.18355 
248 1 1 0.00349902 -0.0278426 0.00763309 0 0 0 1.22511e-06 -5.09258e-06 -7.37487e-06 -9.65088e-07 -1.10832e-06 -2.40436e-06 -0.00108607 0.000117774 0.000364051 0.004 596.105 -1.89639 
79 1 1 0.035837 -0.0289489 0.00959647 0 0 0 9.80281e-07 -2.39861e-06 -3.75693e-06 -4.58982e-07 -8.63416e-07 -5.82688e-07 0.000497162 -0.000930187 0.000438434 0.004 784.612 -2.83763 
291 1 1 -0.00458869 -0.0173975 0.00909525 0 0 0 3.88789e-06 -4.5157e-06 -2.65168e-06 -2.49668e-06 -6.03073e-07 -2.82655e-08 0.000307564 -0.000169973 -4.25251e-05 0.004 498.661 1.94755 
891 1 1 0.0037349 -0.015528 0.00632509 0 0 0 2.97848e-06 -4.61809e-06 -6.87742e-06 -1.41546e-06 -1.66547e-06 -1.27366e-06 -0.00069691 -0.000208634 -0.000294031 0.004 594.227 -1.61812 
870 1 1 0.0138323 -0.0156363 0.00831018 0 0 0 6.88896e-06 -6.70021e-06 -1.28085e-05 -1.0363e-06 -3.46059e-06 -3.69708e-06 0.000378637 -0.000322237 0.00041704 0.004 701.016 -5.01246 
777 1 1 0.034969 -0.018778 0.00771 0 0 0 -3.52558e-07 -3.06744e-06 -2.23328e-06 -1.25866e-06 -8.29186e-07 -4.99665e-07 0.000259457 -0.000332332 0.000500879 0.004 790.605 -1.9467 
837 1 1 -0.029449 -0.0146727 0.00803327 0 0 0 4.31666e-06 -1.86615e-06 2.23894e-06 -6.45103e-07 -5.00111e-07 -1.21052e-06 0.000134221 9.13978e-05 -0.000361888 0.004 317.482 2.60097 
445 1 1 -0.0181358 -0.0138493 0.00995277 0 0 0 5.84056e-06 -6.23546e-06 6.25986e-07 -3.42967e-06 -1.66274e-06 -2.61734e-06 0.000382841 -2.5008e-05 -0.000347976 0.004 363.375 4.63835 
783 1 1 0.00485901 -0.00860655 0.0099377 0 0 0 6.17701e-06 -6.79554e-06 -9.73571e-06 -2.22823e-06 -2.6714e-06 -3.7877e-06 0.00074999 -9.74429e-05 -0.000746814 0.004 611.045 -2.42864 
615 1 1 -0.0350999 -0.000758707 0.00955183 0 0 0 4.5969e-06 -1.86474e-06 3.5193e-06 -7.62471e-07 -4.95744e-07 -1.82587e-07 0.000224217 0.00012679 -0.000300976 0.004 307.991 1.52401 
476 1 1 -0.0459521 0.00262139 0.00988978 0 0 0 1.55313e-06 -7.02485e-07 1.83103e-06 -5.0194e-08 -1.56682e-07 6.57035e-08 9.04208e-06 -0.000146857 -6.07109e-05 0.004 301.48 0.490295 
16 1 1 -0.0210455 0.00169439 0.00830927 0 0 0 4.91416e-06 -3.44114e-06 2.27683e-06 -1.53207e-06 -1.31451e-06 -2.17734e-07 0.000272127 0.000130283 -3.27405e-05 0.004 345.935 4.21147 
303 1 1 0.0459492 0.00350464 0.00962656 0 0 0 2.09893e-06 1.18389e-07 -3.62501e-06 -3.51281e-07 -5.14145e-07 -1.18232e-06 0.000128854 -0.000748428 5.39092e-05 0.004 798.094 -0.60038 
523 1 1 -0.0389797 0.00803081 0.00932861 0 0 0 4.09543e-06 -1.43564e-06 4.45954e-06 -2.95449e-08 -4.33994e-07 5.9883e-07 0.000241976 0.00029846 -6.25322e-05 0.004 304.845 1.12009 
704 1 1 -0.010798 0.00519223 0.00743859 0 0 0 4.24953e-06 -3.23971e-06 1.50221e-06 -2.37695e-06 -1.15536e-06 1.22907e-06 -3.44768e-05 0.000261272 7.84283e-05 0.004 418.526 4.51742 
454 1 1 0.00101183 0.00715933 0.00933955 0 0 0 5.31802e-06 -3.33923e-06 -3.30003e-06 -3.0834e-06 -2.90052e-06 2.13405e-07 0.000118853 0.000468661 0.000169372 0.004 554.586 -0.00711636 
31 1 1 0.0102165 0.00547592 0.0083259 0 0 0 5.27041e-06 -3.51409e-06 -8.33142e-06 -3.16369e-06 -3.16089e-06 -7.87596e-07 0.000820381 0.000673675 0.000263388 0.004 664.248 -4.05476 
135 1 1 0.0188886 0.00749171 0.00960783 0 0 0 6.87117e-06 -2.97024e-06 -7.33264e-06 -2.98011e-06 -2.26081e-06 -7.56875e-07 -1.27693e-05 0.00165781 0.000276004 0.004 754.325 -4.90311 
712 1 1 0.0281139 0.00743267 0.00998855 0 0 0 6.15783e-06 2.02124e-06 -1.01767e-05 -2.31358e-06 -1.1487e-06 -2.34088e-06 -0.00142942 0.000932815 0.000415357 0.004 779.66 -3.12268 
210 1 1 0.0394934 0.00814607 0.0098988 0 0 0 4.94708e-06 5.26947e-07 -5.48782e-06 -6.3918e-07 -3.80284e-07 -1.26988e-06 0.000378225 0.000759665 7.19953e-05 0.004 795.774 -1.06439 
651 1 1 -0.0437987 0.0143398 0.00823566 0 0 0 1.90018e-06 -4.48364e-07 2.15374e-06 1.56242e-07 -1.74201e-07 4.70753e-07 5.6743e-05 -9.84262e-05 3.9089e-05 0.004 302.958 0.842496 
621 1 1 0.0437182 0.0147846 0.00900765 0 0 0 2.27432e-06 3.79094e-07 -2.36133e-06 -5.9307e-07 -2.28616e-09 6.76343e-08 0.000247173 -0.000289824 0.000147979 0.004 795.139 -1.16735 
726 1 1 -0.0257657 0.0199972 0.00692824 0 0 0 2.71915e-06 -1.38655e-06 2.77971e-06 -3.20237e-07 -6.73421e-07 6.26166e-07 0.000303617 0.00019526 -3.69459e-05 0.004 324.762 3.48566 
230 1 1 -0.00847466 0.024595 0.00973773 0 0 0 3.62726e-06 -3.0261e-06 3.42585e-06 -1.004e-06 -2.54011e-06 2.92146e-06 0.00064177 4.38506e-05 -0.000140097 0.004 459.084 3.97339 
320 1 1 -0.00171264 0.020405 0.00979384 0 0 0 3.78319e-06 -3.00007e-06 1.25566e-06 -1.9597e-06 -3.4412e-06 2.57934e-06 0.000211876 0.000335513 0.000177651 0.004 526.35 1.84384 
7 1 1 0.0129211 0.0224303 0.00918516 0 0 0 3.28467e-06 -7.11466e-07 -2.51898e-06 -2.49328e-06 -2.62566e-06 2.18854e-06 0.000398387 0.000523787 0.000118801 0.004 691.098 -4.50215 
83 1 1 0.0214164 0.0239651 0.00888424 0 0 0 2.23051e-06 2.77842e-07 -3.32453e-06 -1.61252e-06 -1.05198e-06 1.91963e-06 0.000183251 0.000540278 -2.26297e-05 0.004 754.974 -4.34344 
747 1 1 -0.0337321 0.0313835 0.00974071 0 0 0 1.75705e-06 -1.5332e-06 2.65467e-06 1.68334e-07 -8.74434e-07 1.12729e-06 -0.000149953 -0.00033003 -1.60195e-05 0.004 315.265 2.74135 
51 1 1 -0.0226192 0.0329654 0.0070345 0 0 0 1.8225e-06 -1.07823e-06 2.47002e-06 1.52249e-07 -9.51732e-07 1.63824e-06 -0.00019929 -5.51287e-05 0.000165488 0.004 329.451 4.29326 
116 1 1 -0.00940735 0.0391203 0.00809815 0 0 0 1.26132e-06 -1.63458e-06 2.54454e-06 -4.44449e-07 -1.72286e-06 2.42755e-06 -0.000120694 0.000212638 0.000200737 0.004 460.242 3.9603 
205 1 1 -0.000560453 -0.0460776 0.0110171 0 0 0 4.93465e-07 -2.20865e-06 -1.87404e-06 3.33288e-07 -5.07616e-07 4.56534e-07 -0.000332749 -7.89987e-09 8.6203e-05 0.004 544.508 1.60205 
836 1 1 0.00737986 -0.0454688 0.0106611 0 0 0 8.82581e-07 -2.41689e-06 -3.01324e-06 -1.93217e-07 -5.64292e-07 5.21142e-08 -0.000266932 0.0005341 -3.36231e-05 0.004 615.519 -2.96898 
486 1 1 -0.0156916 -0.0402432 0.0103352 0 0 0 4.18151e-07 -8.80993e-07 1.51515e-07 2.11982e-07 -5.76354e-07 -3.32873e-07 -0.000467181 8.16003e-05 -0.000507803 0.004 379.461 5.98334 
311 1 1 -0.0083681 -0.0439882 0.0106791 0 0 0 1.24354e-06 -2.03996e-06 -2.34421e-06 -1.60238e-07 -4.13582e-07 -2.5636e-07 0.000371883 0.000253379 -9.37007e-05 0.004 429.29 7.12401 
447 1 1 0.0180551 -0.0423881 0.0118323 0 0 0 8.81013e-07 -2.95615e-06 -3.58088e-06 -1.59267e-07 -8.57826e-07 -3.03248e-07 -0.000188053 -0.000767742 0.00026319 0.004 703.227 -5.79262 
538 1 1 -0.0295743 -0.0353509 0.0149849 0 0 0 1.88444e-06 -1.07521e-06 1.39965e-07 -4.12815e-07 -9.24866e-07 -5.87399e-07 7.43283e-05 6.80612e-05 -0.000242364 0.004 323.014 3.52722 
279 1 1 0.011155 -0.0385417 0.0114153 0 0 0 2.3648e-06 -5.14741e-06 -7.64845e-06 -4.61385e-07 -1.03197e-06 -2.12761e-07 8.32841e-05 8.85751e-05 -0.000178347 0.004 657.961 -4.34578 
110 1 1 0.0250464 -0.0386627 0.0117241 0 0 0 1.05232e-06 -2.93828e-06 -2.58216e-06 -2.82277e-07 -9.31494e-07 -8.23859e-07 -0.000104485 0.000127003 5.03221e-06 0.004 744.101 -5.44519 
188 1 1 -0.0179041 -0.0321006 0.0101564 0 0 0 3.46876e-06 -3.42891e-06 -7.71718e-07 -1.15102e-07 -1.90421e-06 -1.63965e-06 0.000301891 0.000345816 -0.000440896 0.004 370.222 5.11798 
810 1 1 -0.0102601 -0.034451 0.0102037 0 0 0 3.23411e-06 -4.12875e-06 -2.98688e-06 1.40702e-07 -1.23439e-06 -1.40614e-06 0.000202031 0.000603518 -0.000449749 0.004 427.617 4.78954 
412 1 1 -0.00316743 -0.0328806 0.0133527 0 0 0 5.30243e-06 -6.25246e-06 -7.1185e-06 2.21493e-08 -8.42955e-07 -1.98934e-06 -8.56788e-05 0.000377019 -9.05195e-05 0.004 498.551 2.42904 