ITEM: TIMESTEP
11200
ITEM: NUMBER OF ATOMS
891
ITEM: BOX BOUNDS mm mm mm
-0.05 0.05
-0.05 0.05
0 0.15
ITEM: ATOMS id type type x y z ix iy iz vx vy vz fx fy fz omegax omegay omegaz radius f_Temp[0] f_heatFlux[0] 
199 1 1 -0.00444281 -0.0458155 0.00397588 0 0 0 0.000249427 0.000253162 0.000172331 -0.000811971 -0.000194339 -0.00130904 -0.00572505 0.0266375 -0.00242753 0.004 300 0 
873 1 1 -0.0201512 -0.0414786 0.00390204 0 0 0 0.000208837 0.000141124 0.000340657 5.70254e-08 -0.000108291 0.000213874 0.058593 0.0316919 0.00646997 0.004 300 0 
485 1 1 -0.0126801 -0.0442531 0.00397437 0 0 0 0.000355602 -0.000132141 0.000208191 -0.000364048 0.000251252 -0.000372263 0.0724816 0.0512528 -0.0794754 0.004 300 0 
850 1 1 0.00335847 -0.0441742 0.00393919 0 0 0 -2.54122e-05 0.000351991 0.000411403 -0.00167103 -0.000147503 -0.000197649 -0.0814239 -0.0859447 0.0225044 0.004 300 0 
186 1 1 0.0114402 -0.0446 0.00392664 0 0 0 -5.96657e-05 0.000126912 -0.000136044 -0.000606292 0.000172833 -0.000101942 -0.0401288 -0.00433308 0.0310531 0.004 300 0 
560 1 1 0.0189687 -0.0420011 0.0039467 0 0 0 0.000117818 0.000143333 -0.000246377 5.48338e-05 0.000172552 7.7368e-05 -0.0260725 -0.0100472 0.00619157 0.004 300 0 
102 1 1 -0.014752 -0.0357323 0.00386213 0 0 0 0.000224797 0.000183718 0.000726622 -0.000315706 0.000276016 0.000551475 0.0128373 0.0218687 -0.0646127 0.004 300 0 
88 1 1 -0.00730824 -0.0383841 0.00392767 0 0 0 0.000310361 0.000123479 0.000370133 -0.000298858 -0.000269866 0.000478165 0.0289601 0.0666629 0.080949 0.004 300 0 
776 1 1 0.0052026 -0.0354367 0.00394968 0 0 0 0.000400475 0.00091938 0.000723744 9.35928e-06 -0.00109055 -0.000733957 -0.123956 0.133749 -0.0512702 0.004 300 0 
410 1 1 0.0130224 -0.0368142 0.00392578 0 0 0 0.000261875 0.000341603 -0.000224903 -0.000351123 -8.01312e-05 0.000124124 0.0606757 0.0254379 -0.0821727 0.004 300 0 
282 1 1 0.025876 -0.0381327 0.00388549 0 0 0 0.000354872 0.00022513 -6.24707e-05 0.00073708 -0.0003618 0.00029833 -0.0373734 0.0238131 -0.0838048 0.004 300 0 
682 1 1 -0.0301998 -0.034881 0.00393615 0 0 0 7.63152e-05 0.000271243 6.26191e-05 -0.000304837 0.000245393 0.000161338 -0.0183226 -0.00415152 0.0447273 0.004 300 0 
251 1 1 -0.0224182 -0.0338481 0.00392829 0 0 0 0.000217705 0.000528426 0.00062119 -0.00029722 3.77469e-05 0.000675171 -0.0289929 -0.0836787 -0.0240635 0.004 300 0 
770 1 1 -0.00204696 -0.0321393 0.00393934 0 0 0 0.000143094 0.000549288 0.000393248 -0.000202411 -0.00117141 0.00024067 -0.0749752 -0.0660698 0.141489 0.004 300 0 
883 1 1 0.0181655 -0.0307571 0.00390174 0 0 0 0.000688303 0.000522603 -0.000198851 1.93659e-05 -0.00126761 0.000262844 -0.0749849 0.119122 -0.0454877 0.004 300 0 
838 1 1 0.0320327 -0.0331069 0.00396384 0 0 0 0.000499379 0.000348751 -3.66093e-05 -0.00017822 -4.57632e-05 0.000674775 -0.0537885 0.0644678 -0.070985 0.004 300 0 
617 1 1 -0.0372513 -0.0271266 0.00391641 0 0 0 6.58591e-05 0.00022513 9.19286e-05 -0.000360846 0.000236064 0.00023588 -0.00981313 0.000111461 0.0399978 0.004 300 0 
824 1 1 -0.0292946 -0.0270357 0.0039305 0 0 0 7.14363e-05 0.000380977 0.000350284 0.000133789 0.000123623 2.87299e-05 0.0156211 0.00262358 -0.0199564 0.004 300 0 
571 1 1 -0.0202619 -0.026222 0.00393621 0 0 0 0.000464573 0.000576419 0.000762604 0.000283416 0.000423316 -0.000340337 -0.0806652 0.0884582 0.0383779 0.004 300 0 
861 1 1 -0.00959234 -0.0297292 0.00389764 0 0 0 0.000288186 0.000158119 0.000449552 -0.000414311 0.000265667 -0.000226081 0.0118413 0.116226 -0.0178322 0.004 300 0 
434 1 1 0.0103434 -0.0293832 0.00393633 0 0 0 0.000399449 0.00083926 0.000116133 -0.000255001 0.000145316 0.000173727 -0.0805452 0.166099 0.0309826 0.004 300 0 
103 1 1 0.0311522 -0.0252304 0.00393788 0 0 0 0.000209794 0.000464518 0.000296707 0.000267605 0.000364449 0.000976815 0.0474563 0.0525292 0.119988 0.004 300 0 
769 1 1 -0.041342 -0.0202854 0.00398296 0 0 0 8.77205e-06 3.75476e-05 6.64083e-05 -0.000163562 -9.19864e-05 -0.000214412 0.0379408 0.00428219 0.0108525 0.004 300 0 
94 1 1 -0.0333732 -0.0202263 0.00394029 0 0 0 0.000127675 0.00045487 0.000296852 0.000137918 0.000252494 -0.000220756 0.0165881 -0.0320825 -0.0084874 0.004 300 0 
40 1 1 -0.0254019 -0.0201439 0.00391784 0 0 0 0.000391333 0.000247974 0.000764724 0.000308338 -6.71566e-05 -0.000814881 -0.0253679 -0.0091553 -0.00220382 0.004 300 0 
19 1 1 -0.00864772 -0.0218818 0.00394329 0 0 0 -0.0002886 0.000339977 0.000446875 0.00111995 0.000424397 -0.000656684 -0.00709058 -0.11612 0.103117 0.004 300 0 
442 1 1 -0.000434025 -0.0218559 0.00393565 0 0 0 -0.000174541 0.00128173 3.76362e-06 -0.000699058 5.27997e-06 -0.000166191 -0.251353 -0.0595452 -0.00932001 0.004 300 0 
259 1 1 0.00753245 -0.0219999 0.00392287 0 0 0 0.000226924 0.0013788 2.06207e-05 -0.000672259 -0.000502423 0.0014303 -0.251332 0.0616673 -0.0541447 0.004 300 0 
512 1 1 0.0153848 -0.023246 0.00397957 0 0 0 0.000409409 0.000958256 0.000207185 0.000390699 0.000143287 0.00161192 0.419144 -0.0436121 -0.0382077 0.004 300 0 
470 1 1 0.0232528 -0.0243858 0.00390966 0 0 0 0.000318526 0.000809005 0.000249068 0.000596668 -0.000156706 0.000965835 -0.24879 -0.0114067 -0.0946856 0.004 300 0 
451 1 1 0.0390281 -0.0244812 0.00392259 0 0 0 0.000366887 0.00026439 0.000324117 -0.000329241 -0.000514215 0.000306795 0.0990663 0.00925753 -0.158675 0.004 300 0 
531 1 1 -0.0164612 -0.0192006 0.00396369 0 0 0 0.000112887 3.38763e-05 0.000400414 0.000523208 0.00011571 -0.000794432 0.0956143 0.0533982 0.113593 0.004 300 0 
229 1 1 0.0201652 -0.0169041 0.00386923 0 0 0 2.75004e-05 0.00129841 0.000537747 0.00127299 -0.000865063 0.00168202 -0.350577 0.0880555 0.231697 0.004 300 0 
734 1 1 0.0279928 -0.0179588 0.00392661 0 0 0 0.000124119 0.000951731 -0.000173393 0.00173534 -0.000100458 0.000377811 -0.186156 0.159373 -0.128108 0.004 300 0 
635 1 1 0.0425992 -0.0174459 0.00392152 0 0 0 0.000554647 0.000272124 0.000794492 -0.000837751 -0.000609169 -0.000470146 -0.0264261 0.182109 0.0852126 0.004 300 0 
87 1 1 -0.0448188 -0.0104758 0.00391315 0 0 0 -9.99568e-05 0.000390921 0.000466636 0.000133592 -0.0009725 0.000141466 -0.142316 -0.0284879 -0.15326 0.004 300 0 
406 1 1 -0.0373904 -0.0133928 0.00396225 0 0 0 -0.000309065 0.000179492 0.000184492 0.000566596 0.000145763 -0.000436923 -0.0501039 -0.0576973 0.0745029 0.004 300 0 
224 1 1 -0.0230618 -0.0125987 0.00388131 0 0 0 -6.39755e-06 0.000253279 0.000670563 0.000484779 -0.000703779 0.000420968 -0.0628887 -0.0346832 0.133036 0.004 300 0 
751 1 1 -0.0103 -0.0141582 0.00396997 0 0 0 -0.000611796 0.00043737 0.000618066 0.000368057 0.000538896 0.00054881 0.046268 0.0982708 0.0109977 0.004 300 0 
622 1 1 -0.00273321 -0.0117472 0.00388506 0 0 0 -0.000623214 0.000459594 0.000859641 0.000304273 8.19666e-05 0.00130417 -0.0869885 -0.118412 -0.035425 0.004 300 0 
128 1 1 0.00951926 -0.0106974 0.00388203 0 0 0 -0.000426485 0.00179424 0.00140147 -2.03562e-05 -0.000470323 0.000739522 -0.348968 -0.0804199 0.142948 0.004 300 0 
68 1 1 0.0262979 -0.0102197 0.00395077 0 0 0 -0.000100783 0.0021127 0.000257495 0.000424663 -0.000293222 0.00134575 0.207334 0.332355 -0.0349618 0.004 300 0 
791 1 1 0.0348328 -0.0122005 0.00395389 0 0 0 -0.026797 0.0160948 0.000332739 -0.00672008 0.00383068 -0.000650744 -2.49395 -4.56147 -0.525879 0.004 300 0 
354 1 1 -0.0380909 -0.00550549 0.00392249 0 0 0 0.000407674 -3.91006e-05 0.000216642 -0.000574492 -0.000311789 -0.000528471 -0.0413821 0.134399 6.39052e-05 0.004 300 0 
725 1 1 -0.0305092 -0.0079861 0.00392169 0 0 0 0.000706121 -0.000428073 0.000747198 0.000342828 -0.000267765 0.000234143 -0.219905 0.0273043 0.254629 0.004 300 0 
353 1 1 -0.0161284 -0.00880017 0.00391167 0 0 0 -0.000325658 0.000447862 0.00095876 0.00033026 0.000176516 0.000148798 -0.0543011 -0.0490693 -0.106076 0.004 300 0 
391 1 1 -0.00857352 -0.00640407 0.0039123 0 0 0 -0.00120965 0.000471963 0.000953824 0.0013281 -0.000174431 -0.000555469 0.189394 0.169087 0.17296 0.004 300 0 
683 1 1 0.0173638 -0.00944494 0.00391049 0 0 0 -0.000143439 0.00166363 0.000412517 -0.0001073 -0.000546222 0.000552277 -0.43743 0.0552324 0.064189 0.004 300 0 
690 1 1 0.0385726 -0.00516943 0.00389024 0 0 0 0.00132662 0.00290484 -0.000382668 0.000127468 0.00152339 0.00135103 -0.808284 0.31627 -0.455383 0.004 300 0 
10 1 1 0.0449628 -0.00990626 0.00397357 0 0 0 0.000102896 0.000274468 -0.000152921 -0.000320208 0.000992118 0.000221547 -0.15695 0.0275984 -0.0908878 0.004 300 0 
402 1 1 -0.0460135 -0.0026512 0.00392314 0 0 0 -4.10665e-05 0.000238189 6.32937e-05 -0.000316419 -0.000292978 -1.59143e-05 0.0172101 0.00470217 0.10803 0.004 300 0 
761 1 1 -0.0294671 -0.000161093 0.00392932 0 0 0 -0.000119889 -0.000129495 0.00015607 -0.000598612 -0.000489952 -0.000299136 0.0101933 -0.0200967 -0.0251527 0.004 300 0 
293 1 1 -0.0229261 -0.00466319 0.0039613 0 0 0 -0.00010712 0.000145005 0.000407113 -2.19116e-05 -0.000457501 0.000971755 0.111847 -0.105973 0.0673704 0.004 300 0 
384 1 1 -0.0148161 -0.000813206 0.0039792 0 0 0 0.000600571 0.00141501 0.000349616 0.00288618 -0.00126206 0.00135194 -0.35476 0.150854 0.815296 0.004 300 0 
378 1 1 0.00131837 -0.00491745 0.00392853 0 0 0 -0.00154873 0.000526028 0.000463869 0.00050834 -9.89021e-06 0.0013078 -0.233565 -0.403882 0.35468 0.004 300 0 
390 1 1 0.0103779 -0.00277873 0.00396876 0 0 0 -0.000576675 0.00132583 0.000825259 -0.000968777 -0.000540838 0.000775528 -0.231096 -0.0754244 0.240629 0.004 300 0 
411 1 1 0.0223872 -0.00329843 0.00397499 0 0 0 -0.000853504 0.00192279 0.000981365 0.00101027 -0.000743767 0.00176234 0.21949 -0.500248 0.123515 0.004 300 0 
342 1 1 0.0307452 -0.003621 0.0039761 0 0 0 0.000866304 0.00159867 0.000178344 0.000103175 -4.38982e-05 0.00044527 0.236091 0.0923395 -0.0230915 0.004 300 0 
262 1 1 0.0460233 -0.00206485 0.00395853 0 0 0 -0.000472793 -0.000661621 0.000450535 0.000102948 0.00114465 0.000667281 0.365706 0.00415774 0.216484 0.004 300 0 
261 1 1 -0.0398215 0.00224712 0.00393746 0 0 0 9.61302e-05 -0.000301258 0.00010363 -0.000175414 -0.000464555 -0.000645416 0.0426252 0.0449595 0.0874331 0.004 300 0 
666 1 1 -0.00452936 0.000440099 0.00395587 0 0 0 -0.00212153 0.000274234 0.000521814 0.000590902 -1.22665e-05 0.000208148 0.140532 0.587847 -0.337671 0.004 300 0 
815 1 1 0.00435524 0.00242491 0.0039318 0 0 0 -0.00113902 0.000627275 0.00016286 -0.000962237 -0.000470779 0.000291319 -0.0634989 -0.231767 -0.270732 0.004 300 0 
306 1 1 0.016375 0.00246412 0.00395562 0 0 0 -0.000530696 0.00133546 0.00111674 2.79424e-06 -0.000450362 0.000530639 -0.292833 -0.0945912 -0.00370317 0.004 300 0 
178 1 1 0.0241063 0.00443685 0.00386216 0 0 0 -0.000665274 0.000919628 0.0011133 0.000677632 0.000317998 -0.000287382 -0.253137 -0.171088 -0.153388 0.004 300 0 
862 1 1 0.0320671 0.00423191 0.00393342 0 0 0 -0.000524932 0.00115438 0.000708291 -0.000157053 0.00044199 -0.000695398 -0.0709663 0.106743 0.338477 0.004 300 0 
661 1 1 0.0398747 0.00290948 0.00394831 0 0 0 -0.000557059 0.000160261 0.000735917 -0.000262781 0.00055674 0.00072886 0.0557259 -0.186866 -0.499846 0.004 300 0 
677 1 1 -0.0453762 0.00788928 0.00393543 0 0 0 -0.000103324 -0.000247905 0.000171329 -0.000171328 -0.00034158 -0.000335657 -0.0275778 -0.0417563 -0.0862274 0.004 300 0 
12 1 1 -0.0333145 0.00672187 0.00393957 0 0 0 -5.61823e-05 -0.000166291 7.95479e-05 -0.000330971 -0.000668082 -3.94914e-05 -0.000664819 -0.0348223 0.00346136 0.004 300 0 
420 1 1 -0.0253951 0.00665159 0.00393051 0 0 0 -0.000115284 -0.000144249 7.99924e-05 -0.000440313 -0.000350093 0.000654141 -0.0067832 -0.0260485 0.0401356 0.004 300 0 
654 1 1 -0.0175106 0.0072215 0.00387565 0 0 0 -0.000125854 -0.000231335 0.00041339 -0.000438371 -0.000487952 -5.67623e-05 0.0148279 -0.068276 0.0111025 0.004 300 0 
145 1 1 -0.00453785 0.00835431 0.00386299 0 0 0 -0.000907003 0.000271233 -0.000306019 0.000816296 4.12611e-05 -0.000463305 -0.218566 -0.112873 0.357566 0.004 300 0 
624 1 1 0.0451409 0.00889863 0.00391089 0 0 0 0.000208136 -0.00104956 0.000506455 0.000535205 0.00102537 0.000381701 0.268768 -0.0182116 -0.115589 0.004 300 0 
613 1 1 -0.037303 0.0135324 0.00384472 0 0 0 0.000259319 -0.000204088 0.000206041 -0.000471357 -0.000391172 -0.000171742 0.0275074 0.0867647 -0.0852305 0.004 300 0 
265 1 1 -0.0293046 0.0135442 0.00396569 0 0 0 -1.19672e-05 -4.40248e-05 -5.77578e-05 3.90475e-05 -0.000385187 0.000208495 -0.0635933 0.0448834 0.013565 0.004 300 0 
273 1 1 -0.0213702 0.0141339 0.00393178 0 0 0 -0.000240393 7.32151e-05 -0.000150852 0.000241179 -0.000562413 -0.000399419 -0.0958548 -0.0516145 -0.0201623 0.004 300 0 
492 1 1 -0.0114354 0.0123686 0.00397957 0 0 0 -0.000667146 1.42069e-05 -8.88864e-05 0.000180817 -0.00130826 -0.000428938 -0.26225 0.0246158 0.0560665 0.004 300 0 
234 1 1 0.00586674 0.0103823 0.00392887 0 0 0 -0.00113037 -0.000128471 -0.000227021 0.000673776 0.000289331 0.000155164 0.0563865 -0.220346 0.147273 0.004 300 0 
160 1 1 0.0142891 0.0106404 0.00391535 0 0 0 -0.000757679 -0.000523809 0.00019643 0.000568458 -0.000510198 -0.000954887 0.210603 -0.238733 0.0647668 0.004 300 0 
484 1 1 0.0220949 0.0120707 0.00390385 0 0 0 -0.000954567 0.000578983 0.00046466 0.000881673 -0.000494252 -0.000668857 0.152213 0.278861 0.161555 0.004 300 0 
743 1 1 0.0300227 0.0126218 0.00398174 0 0 0 -0.00100248 0.000467658 -0.000111754 0.00177085 -0.000291034 -0.000667637 0.0316347 -0.0732862 -0.0355015 0.004 300 0 
514 1 1 0.0379575 0.0130151 0.00387152 0 0 0 -0.000463388 -0.000394401 0.00053794 0.000358199 -0.000728208 -0.00109549 0.0221766 -0.140394 -0.299366 0.004 300 0 
530 1 1 -0.0158941 0.0198643 0.00392695 0 0 0 -0.000262001 -5.57266e-07 -0.000505123 -0.00055949 -0.000248814 -0.000946883 0.0606735 -0.00616357 -0.0523638 0.004 300 0 
227 1 1 -0.00734728 0.019202 0.00396578 0 0 0 -0.00101133 -7.8997e-05 -0.00106652 1.09785e-05 -0.000737157 -0.000627929 -0.114568 -0.196026 0.0210882 0.004 300 0 
392 1 1 -0.000486473 0.0151337 0.00394388 0 0 0 -0.000839273 0.00016809 -0.000596773 0.000407616 -9.84196e-05 -0.000684252 0.0690085 -0.0826441 -0.347937 0.004 300 0 
493 1 1 0.0098548 0.0172508 0.00395087 0 0 0 -0.000431431 -2.78539e-05 -1.46226e-05 0.00151242 -0.000257378 -0.00151898 -0.0281902 -0.0390848 -0.223613 0.004 300 0 
34 1 1 0.0176346 0.0187876 0.00394276 0 0 0 -0.000382833 -0.000258014 0.000111981 0.00140522 0.000781185 0.000243695 -0.0137463 -0.131663 0.183848 0.004 300 0 
206 1 1 0.025541 0.0192323 0.0039707 0 0 0 -0.000639865 0.000289415 0.000291263 0.000631527 -0.000324339 -0.00113772 0.0809035 0.137345 -0.0826954 0.004 300 0 
104 1 1 0.033419 0.01993 0.00389913 0 0 0 -0.000597358 -0.000581167 0.000257796 -7.80136e-05 -0.000199944 -0.00118474 0.0520295 -0.145267 -0.164873 0.004 300 0 
809 1 1 -0.0412081 0.0204908 0.00395558 0 0 0 0.000107332 -0.000125272 -0.00010744 -3.03975e-05 8.80312e-06 4.16688e-06 0.0186719 0.0381398 -0.0196217 0.004 300 0 
773 1 1 -0.0331501 0.0204544 0.00393694 0 0 0 0.000157554 -2.49274e-05 -4.96452e-05 -8.62526e-05 -0.000369946 -0.000216338 -0.00239556 0.0524673 -0.0110631 0.004 300 0 
792 1 1 0.0034709 0.0219682 0.00392455 0 0 0 -0.000241631 5.63778e-05 -0.000612241 0.000158414 0.00030475 -0.00147892 -0.054443 -0.0604284 0.188459 0.004 300 0 
718 1 1 0.0413227 0.0203574 0.00393005 0 0 0 -0.000213519 -0.000392408 3.6095e-06 -0.00031633 0.000265972 -0.000189471 0.229543 0.116898 0.136851 0.004 300 0 
101 1 1 -0.0371179 0.0272953 0.00390425 0 0 0 1.8465e-05 6.44293e-05 -0.00014935 0.000315828 -0.000101705 0.000272749 -0.014815 -0.0071484 0.0238536 0.004 300 0 
246 1 1 -0.0290556 0.0272822 0.00398149 0 0 0 0.000138351 -8.28513e-06 -0.000129651 -0.000398702 -7.50698e-05 0.000484287 0.00824666 0.0181761 0.0790656 0.004 300 0 
331 1 1 -0.0212245 0.025781 0.00389877 0 0 0 -1.14852e-05 4.48524e-05 -0.000193636 -0.000285218 0.000284905 -0.000120834 -0.00906825 0.0483847 -0.0350246 0.004 300 0 
846 1 1 -0.0134657 0.0274134 0.00397666 0 0 0 -0.00049604 0.000341201 -0.000626211 -0.00189037 0.000591316 -0.000776622 -0.156274 -0.0930914 0.125729 0.004 300 0 
348 1 1 -0.00329902 0.0260665 0.00393358 0 0 0 -0.000763238 -0.000213011 -0.0011811 -0.000355106 -0.000495372 -0.00108039 0.1386 -0.28219 -0.0243239 0.004 300 0 
786 1 1 0.0084002 0.0281492 0.00389455 0 0 0 0.000130875 5.99933e-05 -0.000249843 0.000302873 0.000394287 -0.000518467 -0.0236417 0.0257962 -0.121706 0.004 300 0 
316 1 1 0.0162801 0.0272937 0.00390426 0 0 0 5.85832e-05 -0.000238359 7.6529e-05 0.000601271 -0.000707055 0.000788482 0.0122921 -0.0316657 0.0863215 0.004 300 0 
495 1 1 0.0288875 0.0264583 0.00396776 0 0 0 -0.000155189 -2.94609e-05 0.000349669 -0.000230734 -0.000444951 -0.000479764 0.13966 0.0858303 -0.0279367 0.004 300 0 
863 1 1 0.0367269 0.027762 0.00393017 0 0 0 -0.000106247 -0.000123949 -1.09725e-05 -0.000375758 0.000917494 -9.86847e-05 0.0287266 -0.022569 0.016605 0.004 300 0 
511 1 1 -0.00762304 0.032718 0.00388556 0 0 0 -0.000549699 0.000246507 -0.000947554 -0.00188454 -6.09527e-05 -0.000612178 0.0545277 -0.0546225 -0.140492 0.004 300 0 
722 1 1 0.00164348 0.0322895 0.00396871 0 0 0 0.000124919 0.000166622 -0.000260973 -5.10027e-05 -0.000160247 -0.000473879 -0.0308368 0.0827993 -0.0515412 0.004 300 0 
2 1 1 0.0229311 0.0316923 0.00396096 0 0 0 -0.00036246 0.000142123 0.000420179 0.00020009 -0.000734227 0.00014459 -0.0739588 -0.139924 0.0342813 0.004 300 0 
254 1 1 0.0304319 0.0344901 0.00398149 0 0 0 0.00249702 -0.00318489 1.11196e-05 1.23927e-05 -5.46722e-06 9.23766e-06 0.796304 0.630311 -0.202824 0.004 300 0 
257 1 1 -0.0296291 0.0352236 0.00395126 0 0 0 -0.000275191 -7.71774e-06 0.000107386 0.000557159 -0.000329527 0.000706882 0.0300351 -0.101647 0.00150115 0.004 300 0 
582 1 1 -0.0157543 0.0356252 0.00392534 0 0 0 0.000432459 0.000294421 -0.000588062 -0.00145325 0.0016682 -0.000330464 -0.0567464 0.1382 0.00777136 0.004 300 0 
255 1 1 -0.00266935 0.0389319 0.0039131 0 0 0 0.000214079 0.000369852 -0.000348353 -0.00113125 -0.000528618 -0.00059836 -0.13019 0.119201 0.0605249 0.004 300 0 
887 1 1 0.00812226 0.0373217 0.00392648 0 0 0 0.00036248 8.27366e-05 -0.000120663 0.000202139 -0.00038104 -0.000263546 -0.0497676 0.0698267 0.0645992 0.004 300 0 
719 1 1 0.0157859 0.0351949 0.00398269 0 0 0 0.000117913 6.41603e-05 -0.000227675 0.000806723 -0.000393752 0.000724611 -0.0330028 0.0313487 -0.130991 0.004 300 0 
21 1 1 0.02343 0.0396295 0.00391302 0 0 0 -2.68985e-05 0.000167516 4.82007e-05 0.000476991 -0.000369052 -0.000275756 -0.0521098 -0.0555023 -0.0837628 0.004 300 0 
325 1 1 -0.0222307 0.040303 0.00393693 0 0 0 0.000382282 -9.80018e-06 -0.000116208 -0.000320691 -0.000353471 0.000709742 0.0506682 0.0652431 0.11235 0.004 300 0 
595 1 1 -0.014927 0.0435429 0.00398312 0 0 0 0.000414117 -0.000183445 -0.000228483 -0.000492419 0.000349729 1.55012e-05 0.0652192 0.190362 -0.00386746 0.004 300 0 
568 1 1 0.0162957 0.0430926 0.00392576 0 0 0 0.000413136 5.19937e-05 -0.000124104 -0.00026401 -0.000264876 5.25719e-05 0.0143419 0.0863824 0.0839354 0.004 300 0 
387 1 1 -0.00719544 0.0454829 0.00390951 0 0 0 -0.000151855 -0.000212389 0.000109831 -0.000660242 0.000419519 0.000289696 0.141904 -0.124448 0.0562351 0.004 300 0 
852 1 1 0.000762975 0.0460608 0.00397637 0 0 0 8.41807e-05 -4.32936e-05 -0.000177442 -0.000465956 -0.000179311 0.000464077 0.143951 -0.00599803 -0.0547357 0.004 300 0 
157 1 1 0.00865952 0.0452505 0.00389897 0 0 0 0.000162311 -0.000402069 -2.92543e-05 -0.000435547 4.03932e-05 -0.000215159 0.118111 0.00539516 0.0445489 0.004 300 0 
400 1 1 -0.0247525 -0.038793 0.009751 0 0 0 -0.000261012 0.000137861 -0.000121732 -0.000131271 9.30583e-05 7.81321e-05 -0.158666 -0.207538 0.0896297 0.004 300 0 
606 1 1 -0.000655451 -0.0387223 0.00814166 0 0 0 0.000418502 0.000872049 0.00118637 0.000519156 -0.00189646 -0.000977502 -0.132427 -0.228396 0.13905 0.004 300 0 
724 1 1 -0.0339124 -0.0311584 0.00984724 0 0 0 2.68704e-08 0.000319524 7.35567e-05 -0.000776839 0.000139858 -8.68567e-05 -0.00686506 -0.0264057 0.0181854 0.004 300 0 
183 1 1 0.0251916 -0.0311784 0.00753095 0 0 0 0.00044875 0.000110308 -4.81797e-06 0.000122147 0.000290065 0.000564428 0.153962 -0.154048 0.115208 0.004 300 0 
544 1 1 -0.0140203 -0.0253062 0.00875925 0 0 0 0.000864599 0.00013592 0.00177095 0.000513026 0.00144921 -6.20961e-05 0.390302 -0.164715 -0.0776169 0.004 300 0 
29 1 1 -0.0045003 -0.0263845 0.00900645 0 0 0 7.80238e-05 0.00126534 0.000610287 0.000178867 0.000695522 1.73604e-05 -0.0312255 -0.0219312 0.29098 0.004 300 0 
248 1 1 0.00349866 -0.0278348 0.00763201 0 0 0 0.000390245 0.000709334 0.00121756 -0.000592936 -0.000604791 -0.000840643 0.251939 0.0889068 -0.0396145 0.004 300 0 
79 1 1 0.0358418 -0.0289401 0.00960082 0 0 0 0.000737089 6.58501e-05 0.000421389 -0.00138032 -0.00134298 -0.00012429 -0.0642984 0.132626 0.151073 0.004 300 0 
291 1 1 -0.00457519 -0.0174054 0.00910159 0 0 0 -0.000223114 0.000595688 0.00175318 0.000705774 -0.000444209 0.00186501 0.0851732 0.542072 -0.141985 0.004 300 0 
891 1 1 0.00373538 -0.0155306 0.0063275 0 0 0 -0.000300216 0.00132383 0.000845339 -0.000681124 -0.000745494 0.00172007 0.40059 -0.0443779 0.198416 0.004 300 0 
870 1 1 0.0138325 -0.0156102 0.00835146 0 0 0 -0.000256631 0.0020351 0.00184454 -0.000171317 -0.00111402 0.00101142 0.197133 0.181989 -0.295089 0.004 300 0 
777 1 1 0.0347073 -0.0190894 0.00791344 0 0 0 0.00595977 0.00929174 -0.00729771 0.00335014 0.00537878 0.00243359 1.04392 1.5349 2.6651 0.004 300 0 
837 1 1 -0.0294758 -0.0146606 0.0080027 0 0 0 0.000563004 -0.000284594 0.00128571 0.000567295 4.42244e-05 0.000301676 0.175583 -0.132417 -0.213047 0.004 300 0 
445 1 1 -0.0181245 -0.0138469 0.00994477 0 0 0 -0.000731824 -0.000324511 0.00294436 0.00124653 -0.000391161 0.00167385 0.176082 -0.443374 -0.0273506 0.004 300 0 
783 1 1 0.00488386 -0.00860846 0.00993502 0 0 0 -0.000925669 0.00203699 0.00204391 0.000376014 -0.00169165 0.00081652 -0.133385 0.265471 0.0800155 0.004 300 0 
615 1 1 -0.035096 -0.000759742 0.00955227 0 0 0 -0.000252074 1.77199e-05 0.000197072 -0.000737856 -4.12534e-05 -0.000901723 -0.024849 -0.1422 -0.019855 0.004 300 0 
476 1 1 -0.0459532 0.00262085 0.00988257 0 0 0 -5.01138e-05 -8.69661e-05 0.000798381 0.000182195 -0.000241372 0.000224838 0.247338 0.00102514 -0.0944659 0.004 300 0 
16 1 1 -0.0210378 0.00169916 0.00831876 0 0 0 -0.000213103 -8.58635e-05 0.000826214 0.000557109 -0.000645486 -0.000450066 -0.170119 -0.0893563 -0.110785 0.004 300 0 
303 1 1 0.0459425 0.00349279 0.00963887 0 0 0 0.000205375 -0.00120355 0.001431 0.00100158 0.00296467 0.000230802 -0.360433 0.31208 -0.0320184 0.004 300 0 
523 1 1 -0.0389773 0.00803111 0.00933469 0 0 0 0.000350728 -0.000824557 0.000497375 -0.000417011 2.41945e-05 -0.000484168 0.102413 0.0827976 -0.0702242 0.004 300 0 
704 1 1 -0.0107976 0.00519161 0.00743702 0 0 0 -0.000316533 -0.000329359 0.000998447 0.000968387 -0.000360986 -0.00148845 -0.190424 0.0918303 0.0270605 0.004 300 0 
454 1 1 0.00102094 0.0071584 0.00933898 0 0 0 -0.00180331 0.000934087 2.87432e-05 0.000550888 0.000286181 0.000148088 0.184155 -0.141786 -0.08076 0.004 300 0 
31 1 1 0.0102286 0.00547382 0.00833402 0 0 0 -0.00125781 0.00104611 0.00100355 0.000800153 -0.00133673 -0.00134326 -0.687548 0.253951 -0.21675 0.004 300 0 
135 1 1 0.0188975 0.00748033 0.00960339 0 0 0 -0.000982237 0.00138968 0.0026753 0.00103223 1.48955e-05 0.000332769 0.0582317 -0.114048 -0.124221 0.004 300 0 
712 1 1 0.0281149 0.00744412 0.00998836 0 0 0 -0.00085831 -0.000845144 0.00311339 0.000684686 -0.00182781 -2.04417e-06 0.574578 0.0270308 -0.205079 0.004 300 0 
210 1 1 0.0394896 0.00813955 0.00990333 0 0 0 -1.87236e-05 -0.0007655 0.00136298 -0.00159483 0.00122325 -0.000909825 0.0640764 0.152715 0.261628 0.004 300 0 
651 1 1 -0.0437973 0.0143377 0.00824334 0 0 0 6.15344e-05 -0.000189745 -0.00010441 -7.53703e-05 -0.000245053 -1.58804e-05 0.00670105 0.00964721 0.00900016 0.004 300 0 
621 1 1 0.0437191 0.0147777 0.00901248 0 0 0 -0.000189194 -0.000244312 0.000199382 0.000290693 4.32337e-05 -0.000766753 -0.3566 -0.120714 -0.0165936 0.004 300 0 
726 1 1 -0.0257661 0.0200018 0.00693063 0 0 0 -2.70214e-05 3.3555e-05 -0.000145614 0.000162105 0.000257937 -0.000656365 0.11236 0.0460511 0.0156529 0.004 300 0 
230 1 1 -0.00846466 0.0245798 0.00973721 0 0 0 -0.00121309 0.000828242 -0.00357528 -0.000576303 0.0011907 -0.00575535 -0.556546 0.138427 -0.053187 0.004 300 0 
320 1 1 -0.00171482 0.0203786 0.00978706 0 0 0 -0.000609108 0.000507649 -0.00189824 0.000657774 -0.00137482 -0.00244962 -0.32857 -0.118628 0.07224 0.004 300 0 
7 1 1 0.0129118 0.0224361 0.0091813 0 0 0 4.91267e-05 -0.000425764 1.17118e-05 0.000960047 -0.000850006 -0.00129381 0.0321532 -0.0880993 -0.0750719 0.004 300 0 
83 1 1 0.021422 0.0239725 0.00887612 0 0 0 -0.000213993 -0.000505751 0.000922198 0.000341208 -0.00136264 0.000932048 -0.0275248 -0.124901 -0.0701714 0.004 300 0 
747 1 1 -0.0337115 0.0314012 0.00970949 0 0 0 -0.000405277 0.000210309 0.000279561 0.000813007 0.00123014 -0.000161308 0.0636207 -0.21937 0.0120409 0.004 300 0 
51 1 1 -0.0226085 0.032968 0.00702498 0 0 0 -1.5706e-06 0.000215826 -0.0007103 0.000772421 0.000992983 0.00154243 0.0262613 -0.403245 -0.111154 0.004 300 0 
116 1 1 -0.00938371 0.0391131 0.00813403 0 0 0 -0.000815974 0.000589709 -0.00132567 -0.00115836 0.000785189 -0.000599719 0.0373977 -0.308785 -0.0927039 0.004 300 0 
205 1 1 -0.000565241 -0.0460743 0.011025 0 0 0 0.00045104 0.000517137 0.00152981 0.000424586 -0.00115214 -0.000178552 0.274004 0.243206 -0.102802 0.004 300 0 
836 1 1 0.00737972 -0.0454688 0.010654 0 0 0 0.000860217 0.000384099 0.000543435 -0.000832185 -0.000208942 0.000809573 3.51209e-05 0.339673 -0.123339 0.004 300 0 
486 1 1 -0.0157939 -0.0401483 0.0103831 0 0 0 0.00166115 -0.00090989 -9.01592e-05 0.000207114 -0.000354363 -5.74707e-05 0.431609 0.323506 0.216431 0.004 300 0 
311 1 1 -0.0083999 -0.0441737 0.0107138 0 0 0 0.00131734 0.00332751 7.84887e-05 0.000461656 0.0019432 -0.00200605 -0.942661 0.165739 0.188825 0.004 300 0 
447 1 1 0.0180412 -0.0423937 0.0118296 0 0 0 0.000918108 0.000628947 -0.000679454 -0.000447213 -0.000342619 0.000513935 -0.129973 0.0917823 -0.171046 0.004 300 0 
538 1 1 -0.0295798 -0.0353416 0.0149911 0 0 0 0.000371914 0.000220393 -0.000721919 0.000613777 -0.000198564 -0.000523508 0.00776773 0.276334 -0.0806961 0.004 300 0 
279 1 1 0.011146 -0.0385381 0.0114156 0 0 0 0.000673849 0.00097709 -0.000800289 0.000464294 0.000431246 0.0012903 -0.217846 0.0748898 0.154576 0.004 300 0 
110 1 1 0.0250343 -0.0386692 0.0117255 0 0 0 0.00110307 0.000240753 4.02474e-05 -0.00219387 -0.00228009 -0.00123341 0.156192 -0.113864 0.0275562 0.004 300 0 
188 1 1 -0.0178963 -0.0321161 0.0101728 0 0 0 0.000858655 0.00116105 0.00113643 0.000157048 0.00104816 -2.85379e-06 -0.111366 0.143279 -0.11915 0.004 300 0 
810 1 1 -0.0102683 -0.0344488 0.0101968 0 0 0 0.000592223 0.00100686 0.00117493 -0.000571726 0.00142845 0.000497186 -0.369933 -0.0189008 0.0589965 0.004 300 0 
412 1 1 -0.00317347 -0.0328874 0.0133512 0 0 0 0.000758487 0.00122858 0.000620487 0.000214066 0.00131098 -0.000368728 0.0496479 -0.070318 0.087577 0.004 300 0 
545 1 1 0.00451548 -0.0343002 0.0121983 0 0 0 0.000857551 0.00126621 0.000422325 0.000306429 0.000252107 -0.000242032 -0.00834668 0.222193 -0.154866 0.004 300 0 
100 1 1 0.011501 -0.0305875 0.0117062 0 0 0 0.00180015 0.00168641 -0.000247025 -0.00033735 -4.41858e-05 0.000545218 -0.0418053 0.0828584 0.0938327 0.004 300 0 
556 1 1 0.0183556 -0.034482 0.0109243 0 0 0 0.00191907 0.000911218 -0.000124185 -0.000520522 -0.00021926 0.000652484 -0.0297198 -0.15486 -0.308614 0.004 300 0 
32 1 1 0.0311258 -0.0339602 0.0134606 0 0 0 0.000890426 -8.69403e-05 0.000632528 -0.00152938 -0.000659013 -0.00186467 -0.00821347 -0.143689 0.0211867 0.004 300 0 
5 1 1 -0.0386746 -0.0250104 0.0114404 0 0 0 0.000184401 5.27799e-05 0.000523199 2.31116e-05 0.000498004 0.000729825 0.090705 0.0430273 -0.00104269 0.004 300 0 
415 1 1 -0.0253883 -0.0293836 0.0104163 0 0 0 0.000805039 0.00146695 0.000216195 0.000209232 -0.000227611 0.000835795 -0.278722 0.111051 0.0734221 0.004 300 0 
446 1 1 -0.00967277 -0.0280673 0.0148329 0 0 0 0.0001612 0.00279323 0.00177784 0.00150737 0.0025491 0.000320855 0.516042 0.529212 0.206192 0.004 300 0 
814 1 1 0.0190609 -0.0262959 0.010381 0 0 0 0.00128943 0.00166385 -0.000298149 0.000368092 -0.000825984 3.65876e-05 -0.139412 0.17529 0.483598 0.004 300 0 
24 1 1 0.0289608 -0.0255291 0.0115533 0 0 0 0.00124841 -0.000227742 0.0011481 0.000847783 0.00182445 0.00239626 0.0300587 0.186114 -0.242444 0.004 300 0 
266 1 1 -0.0293228 -0.0224375 0.0104431 0 0 0 0.000230277 0.00105398 0.000678723 7.95322e-05 5.56071e-05 -0.00145291 -0.132343 -0.0744347 0.0117979 0.004 300 0 
487 1 1 -0.0208118 -0.0214318 0.0102439 0 0 0 0.00218074 0.000807803 0.00160117 -0.000521176 0.00127993 -0.00122372 -0.117209 0.318571 -0.0468378 0.004 300 0 
655 1 1 0.00193991 -0.0211516 0.0115987 0 0 0 0.000693452 0.000978254 0.000801532 -0.000223088 -0.000857637 0.000525683 -0.384841 0.136089 0.0231716 0.004 300 0 
243 1 1 0.0112883 -0.0227085 0.0108838 0 0 0 0.000239525 0.00218833 0.000472311 -0.000196579 -0.00088299 0.0019474 0.258203 -0.053393 0.379526 0.004 300 0 
528 1 1 0.0400559 -0.022795 0.0123626 0 0 0 0.00051286 0.00244936 -0.00524757 -0.00282978 -0.00231163 0.000427376 0.0949919 -1.61763 -0.919792 0.004 300 0 
356 1 1 -0.0361844 -0.0175049 0.0110239 0 0 0 -0.000248518 9.1099e-05 0.000221455 0.000690676 0.000282628 0.000662965 -0.222535 -0.15511 0.0908026 0.004 300 0 
112 1 1 -0.0259038 -0.0156358 0.0149737 0 0 0 -0.00233551 0.00146938 0.00374052 0.000830577 -0.00037165 -0.000506482 -0.76483 -0.840127 0.0888052 0.004 300 0 
739 1 1 -0.0119142 -0.0183452 0.0119068 0 0 0 0.000274419 0.000340178 0.00410147 0.00130227 0.00155972 0.000961143 -0.0830702 0.108907 0.261293 0.004 300 0 
30 1 1 0.00799726 -0.0160115 0.0136518 0 0 0 0.000943315 0.00245963 0.00334652 0.000233878 -0.000207707 0.000948061 0.273948 0.142169 -0.228116 0.004 300 0 
309 1 1 0.023645 -0.0197997 0.0103624 0 0 0 0.00173392 0.00173399 0.000910613 0.00133222 0.000260961 0.00224715 0.0638564 0.140317 -0.352896 0.004 300 0 