ITEM: TIMESTEP
28800
ITEM: NUMBER OF ATOMS
891
ITEM: BOX BOUNDS mm mm mm
-0.05 0.05
-0.05 0.05
0 0.15
ITEM: ATOMS id type type x y z ix iy iz vx vy vz fx fy fz omegax omegay omegaz radius f_Temp[0] f_heatFlux[0] 
199 1 1 -0.00444377 -0.0458158 0.00397434 0 0 0 -6.48634e-07 2.45667e-06 2.04692e-06 1.07339e-06 2.13836e-08 8.71141e-07 8.21277e-05 -0.000121538 0.000269661 0.004 456.229 5.30685 
873 1 1 -0.0201484 -0.0414789 0.00390159 0 0 0 -3.69469e-07 1.74086e-06 4.98247e-07 1.36906e-06 9.11858e-08 9.00139e-07 -5.96101e-05 -4.1106e-05 0.000231256 0.004 354.064 6.49481 
485 1 1 -0.0126796 -0.0442534 0.00397263 0 0 0 -6.14544e-07 1.95464e-06 1.21851e-06 9.70919e-07 -3.11522e-07 9.48507e-07 -2.10331e-05 -0.000384016 0.000259427 0.004 382.076 8.18234 
850 1 1 0.00335642 -0.0441759 0.00394115 0 0 0 1.40458e-07 4.23784e-06 1.61175e-06 1.30385e-06 3.25441e-07 4.47132e-07 -0.000758823 0.000296266 -0.000480446 0.004 553.397 -1.00863 
186 1 1 0.0114401 -0.0445988 0.00392827 0 0 0 -1.32012e-07 1.95737e-06 1.6676e-06 6.83095e-07 4.47812e-07 6.57487e-07 -0.000191647 0.000248243 -1.82011e-05 0.004 683.423 -6.92918 
560 1 1 0.018969 -0.0420006 0.00394676 0 0 0 -1.05326e-06 1.61887e-06 1.33595e-06 1.53369e-07 3.04554e-07 1.28201e-07 -5.18228e-05 -0.000146498 -6.65912e-05 0.004 723.519 -6.9554 
102 1 1 -0.0147501 -0.0357331 0.0038631 0 0 0 -1.52514e-06 4.4433e-06 1.9179e-06 1.75939e-06 7.97104e-07 1.88259e-06 -0.000607599 -0.000277309 0.00018379 0.004 384.524 6.18561 
88 1 1 -0.00730762 -0.0383837 0.00392726 0 0 0 -9.88008e-07 4.38211e-06 1.75295e-06 1.5935e-06 3.66966e-07 1.43199e-06 -0.000678838 0.000263745 -5.25063e-06 0.004 438.292 5.48838 
776 1 1 0.00520385 -0.0354368 0.00395023 0 0 0 -1.08192e-06 6.34387e-06 3.605e-06 1.08187e-06 5.79884e-07 1.09608e-06 -0.00119888 0.000110369 -0.00043439 0.004 615.774 -2.54313 
410 1 1 0.0130236 -0.0368131 0.00392572 0 0 0 -1.35576e-06 3.34624e-06 2.58015e-06 6.98401e-07 7.76458e-07 8.1108e-07 -0.000159107 -5.37421e-05 -6.29314e-05 0.004 688.149 -5.96946 
282 1 1 0.025876 -0.0381319 0.00388527 0 0 0 -8.58883e-07 1.83685e-06 1.43608e-06 6.19932e-08 8.98745e-07 -2.47463e-07 -0.0001284 -6.60712e-05 7.10886e-05 0.004 763.049 -5.51493 
682 1 1 -0.0302016 -0.0348779 0.00393464 0 0 0 -5.81175e-07 1.27333e-06 5.61804e-07 7.36141e-07 -1.78761e-07 3.96227e-07 -7.32029e-06 2.26877e-05 0.000170557 0.004 318.798 3.49385 
251 1 1 -0.0224189 -0.0338476 0.00392331 0 0 0 -1.40392e-06 2.78877e-06 7.81497e-07 1.52859e-06 3.29807e-07 1.68546e-06 -0.000199088 -0.000259299 0.000288769 0.004 344.134 5.45118 
770 1 1 -0.00204754 -0.0321408 0.00393964 0 0 0 -1.48526e-06 7.60457e-06 1.90139e-06 1.48306e-06 2.84285e-07 1.154e-06 -0.00140781 0.000247933 0.000235059 0.004 539.645 1.00156 
883 1 1 0.018166 -0.0307536 0.00390023 0 0 0 -1.90964e-06 4.25164e-06 3.51295e-06 3.76501e-07 2.016e-06 1.37131e-07 -0.000807909 -0.000652624 -4.32345e-05 0.004 731.476 -5.9487 
838 1 1 0.0320336 -0.033109 0.00396073 0 0 0 -1.3821e-06 1.7328e-06 2.37184e-06 9.5843e-08 8.75462e-07 -7.71765e-07 0.000209933 -1.53055e-05 -2.02337e-05 0.004 782.054 -3.74903 
617 1 1 -0.0372521 -0.0271215 0.00391646 0 0 0 -1.1723e-06 9.8438e-07 -2.85718e-07 7.523e-07 -4.52293e-08 3.72488e-07 -0.000212759 -6.43657e-05 0.000212282 0.004 305.533 1.60767 
824 1 1 -0.0292998 -0.0270298 0.00392983 0 0 0 -2.61284e-06 2.80177e-06 5.04038e-07 1.64773e-06 2.58263e-08 3.46042e-07 -0.000385962 -0.000516569 0.000351837 0.004 312.637 2.75571 
571 1 1 -0.0202615 -0.0262215 0.00393284 0 0 0 -4.11555e-06 5.01679e-06 1.8282e-06 2.14865e-06 4.18756e-07 8.95879e-07 -0.000469222 -0.000701467 0.000597355 0.004 341.004 5.39795 
861 1 1 -0.00959295 -0.0297305 0.00389697 0 0 0 -3.3233e-06 6.3065e-06 2.20797e-06 2.4154e-06 1.21351e-06 1.90215e-06 -0.000676694 -0.000589637 0.000266547 0.004 432.791 5.44497 
434 1 1 0.0103455 -0.0293807 0.00393742 0 0 0 -1.19717e-06 5.45647e-06 2.43317e-06 9.08476e-07 1.39432e-06 1.26585e-06 -0.000321484 0.000232434 -0.000147681 0.004 672.723 -4.91614 
103 1 1 0.0311547 -0.0252347 0.00394363 0 0 0 -1.76641e-06 2.44785e-06 3.48862e-06 3.75238e-07 1.25953e-06 -8.79865e-07 -0.000248238 0.000145739 -8.19389e-05 0.004 785.223 -3.09656 
769 1 1 -0.041344 -0.0202818 0.0039823 0 0 0 -1.61277e-06 6.455e-07 -7.41072e-07 8.39619e-07 1.35949e-07 5.67442e-07 -0.000131109 3.9106e-05 0.000236543 0.004 302.636 0.927439 
94 1 1 -0.0333714 -0.0202163 0.00394369 0 0 0 -3.46057e-06 1.94732e-06 -4.15628e-07 1.70747e-06 3.24301e-07 1.4278e-07 4.46076e-05 -0.000336934 0.00025952 0.004 307.522 1.87294 
40 1 1 -0.025401 -0.0201464 0.00391761 0 0 0 -5.07594e-06 3.97431e-06 3.11577e-07 2.29827e-06 5.27564e-07 2.72931e-07 -0.000250724 -0.000617377 0.000178415 0.004 320.354 3.52974 
19 1 1 -0.00865073 -0.0218804 0.00393965 0 0 0 -5.78508e-06 6.51797e-06 1.27671e-06 2.95789e-06 1.62915e-06 1.3973e-06 -0.000506616 -0.00126788 0.000438023 0.004 434.732 5.68508 
442 1 1 -0.000436979 -0.02185 0.00393583 0 0 0 -4.50973e-06 7.21063e-06 2.32945e-06 2.59507e-06 2.20402e-06 2.03955e-06 -0.0015418 -0.000911368 2.99006e-05 0.004 549.326 1.1806 
259 1 1 0.0075319 -0.0220002 0.00392511 0 0 0 -2.28493e-06 6.87759e-06 1.22685e-06 2.06581e-06 2.19365e-06 1.06352e-06 -0.00107344 0.000187719 9.92032e-05 0.004 652.72 -4.0151 
512 1 1 0.0153883 -0.0232356 0.00397834 0 0 0 -2.01986e-06 5.09472e-06 1.85457e-06 5.96032e-07 2.50843e-06 5.08115e-07 -0.000382418 -0.000533699 -3.7145e-05 0.004 722.904 -5.35093 
470 1 1 0.0232616 -0.0243589 0.00390815 0 0 0 -2.04477e-06 4.33446e-06 4.51558e-06 4.02625e-07 2.68356e-06 -1.41369e-07 -0.000909033 -0.000231586 -0.000173188 0.004 765.097 -4.81102 
451 1 1 0.0390293 -0.0244875 0.00392048 0 0 0 -9.4457e-07 8.53125e-07 8.71947e-07 2.26021e-07 6.82993e-07 -2.07593e-07 -0.000182895 7.8014e-05 -0.000270323 0.004 793.766 -1.73032 
531 1 1 -0.0164596 -0.0192004 0.00396125 0 0 0 -6.198e-06 6.10742e-06 6.51093e-07 2.10905e-06 5.59101e-07 -2.88056e-07 -0.00146836 -0.00143756 6.75932e-05 0.004 349.241 5.9564 
229 1 1 0.0202059 -0.0169136 0.00386875 0 0 0 -3.5481e-06 4.87711e-06 4.99694e-06 2.38432e-07 2.68706e-06 2.76833e-07 -0.000512218 -0.000450963 0.000226171 0.004 753.596 -5.06141 
734 1 1 0.0280521 -0.017942 0.00394397 0 0 0 -1.59409e-06 3.76149e-06 3.28763e-06 1.02022e-07 2.59992e-06 1.13246e-07 -0.000514824 0.000434188 -0.000262537 0.004 782.918 -3.06746 
635 1 1 0.0425981 -0.0174495 0.00392192 0 0 0 -8.17694e-07 2.68112e-07 5.68682e-07 1.65477e-07 3.44862e-07 -5.98262e-07 5.00127e-05 -0.000263737 0.000134103 0.004 798.099 -0.687095 
87 1 1 -0.0448224 -0.0104639 0.0039142 0 0 0 -1.15188e-06 9.39619e-07 -3.0622e-07 2.91603e-07 -1.44717e-07 -1.24093e-07 -9.8885e-05 -0.000148436 -6.67854e-05 0.004 300.893 0.37512 
406 1 1 -0.0373951 -0.013391 0.00396016 0 0 0 -3.22661e-06 1.44049e-06 3.75158e-07 1.31671e-06 5.86812e-07 -1.22302e-07 0.000110404 -0.000701704 2.05131e-05 0.004 302.677 0.889454 
224 1 1 -0.0230581 -0.0126019 0.0038796 0 0 0 -6.45036e-06 5.27481e-06 7.29537e-07 2.59123e-06 1.55975e-06 4.71515e-07 -0.001024 -0.00153389 2.06334e-05 0.004 331.994 4.17981 
751 1 1 -0.0102997 -0.0141546 0.00396944 0 0 0 -5.73795e-06 5.54015e-06 1.7817e-06 1.94454e-06 1.92197e-06 1.28305e-06 -4.85232e-05 -0.000206559 -0.000181689 0.004 409.986 5.59788 
622 1 1 -0.00273389 -0.011741 0.00388523 0 0 0 -6.17676e-06 6.17345e-06 3.34252e-06 2.08431e-06 2.38639e-06 1.41357e-06 -0.000963681 -0.00119011 0.000357632 0.004 499.175 2.19422 
128 1 1 0.00951066 -0.010685 0.00388458 0 0 0 -4.89704e-06 6.53021e-06 4.9768e-06 5.44896e-07 2.23989e-06 1.2446e-06 -0.00109983 -0.000511769 -0.000575527 0.004 683.054 -5.21859 
68 1 1 0.0262808 -0.010211 0.00395439 0 0 0 -3.19864e-06 3.54699e-06 3.24583e-06 -2.86078e-07 2.66371e-06 -2.65537e-07 -0.00037508 -0.000275145 0.000408404 0.004 785.476 -2.89242 
791 1 1 0.0340945 -0.0118532 0.00392801 0 0 0 -1.7137e-06 3.08583e-06 1.90084e-06 -7.14466e-07 2.97866e-06 -2.88139e-07 -0.00059033 -0.000248962 0.00019956 0.004 795.661 -1.27556 
354 1 1 -0.0380749 -0.00550397 0.00392042 0 0 0 -2.64342e-06 1.79785e-06 -1.3243e-08 1.3563e-06 4.47817e-07 -4.09902e-08 -0.000191493 -0.000295857 7.00095e-05 0.004 302.473 0.799495 
725 1 1 -0.0304901 -0.00800532 0.0039252 0 0 0 -5.17399e-06 2.61354e-06 5.78211e-07 2.17352e-06 5.68106e-07 -2.56814e-07 -9.84328e-05 -0.000995164 -0.000510424 0.004 306.889 1.71665 
353 1 1 -0.0161288 -0.00879811 0.00391143 0 0 0 -4.98197e-06 5.07477e-06 2.26519e-06 1.84785e-06 2.46891e-06 9.41514e-08 -0.000696515 -0.000298306 6.99912e-05 0.004 368.284 5.36476 
391 1 1 -0.00857662 -0.0063975 0.00391357 0 0 0 -4.56568e-06 4.35508e-06 2.36888e-06 1.72832e-06 2.505e-06 7.54983e-07 2.61769e-05 -0.00035108 -0.000195458 0.004 433.025 4.91923 
683 1 1 0.0173533 -0.00945629 0.00390986 0 0 0 -4.12827e-06 3.85358e-06 4.04867e-06 1.28751e-07 2.21533e-06 -5.22703e-09 -0.000675986 -0.000292755 0.000136061 0.004 744.914 -5.38606 
690 1 1 0.0385537 -0.00520143 0.00390023 0 0 0 -1.03918e-06 1.59785e-06 1.63126e-06 -1.25676e-07 1.35474e-06 -1.2637e-06 -0.000251647 -7.42051e-05 -0.000118849 0.004 798.098 -0.639902 
10 1 1 0.0449635 -0.00990888 0.00397399 0 0 0 -7.20053e-07 5.89694e-07 7.3682e-07 -3.25621e-07 -1.47065e-07 4.09811e-07 -0.000123183 6.71564e-05 -9.19319e-05 0.004 799.18 -0.34793 
402 1 1 -0.046017 -0.00264172 0.00392182 0 0 0 -1.27566e-06 1.01128e-06 -8.92186e-07 5.50198e-07 2.92721e-08 3.86987e-08 -0.000207316 -7.60669e-05 0.000234438 0.004 301.114 0.419915 
761 1 1 -0.0294744 -0.000168346 0.00392562 0 0 0 -3.58962e-06 2.96125e-06 6.4857e-07 1.58293e-06 1.02338e-06 4.30594e-07 -0.000363286 -0.000521562 -6.40748e-06 0.004 312.791 2.51158 
293 1 1 -0.0229324 -0.00466874 0.00395949 0 0 0 -4.81443e-06 3.95467e-06 9.20325e-07 2.0575e-06 2.05875e-06 1.05903e-08 0.000307055 -0.000574057 9.4011e-05 0.004 330.047 4.25065 
384 1 1 -0.0147735 -0.000862511 0.0039815 0 0 0 0.000333904 -0.000724945 6.03939e-08 2.51817e-12 -5.65674e-12 6.47011e-08 0.181657 0.0836696 0.226562 0.004 301.492 0 
378 1 1 0.00130609 -0.00490408 0.00392906 0 0 0 -5.78713e-06 3.74399e-06 2.08803e-06 1.10936e-06 2.79779e-06 8.90208e-07 -0.000540207 -0.00109631 -0.000679311 0.004 558.915 -0.886697 
390 1 1 0.0103707 -0.00276532 0.00396886 0 0 0 -3.09653e-06 5.25544e-06 1.91351e-06 6.39687e-07 1.85564e-06 2.65075e-07 -0.000290936 -0.000186006 0.000308211 0.004 705.784 -6.64841 
411 1 1 0.0223603 -0.00329286 0.00397626 0 0 0 -3.30739e-06 2.90861e-06 3.36972e-06 -1.78687e-06 2.60569e-06 -7.08469e-07 7.28948e-05 -0.000623933 -0.000355493 0.004 775.705 -4.06645 
342 1 1 0.0307348 -0.00361665 0.00397529 0 0 0 -1.83096e-06 3.49119e-06 1.62979e-06 1.39331e-06 8.52101e-07 -6.92705e-07 -0.000375585 -0.000239486 -0.000406382 0.004 795.398 -1.3198 
262 1 1 0.0460221 -0.00206505 0.00395833 0 0 0 -1.06617e-06 1.33557e-07 7.33294e-07 -1.87373e-08 2.70824e-07 -6.9447e-09 0.00016084 -6.70673e-05 0.000216239 0.004 799.232 -0.329056 
261 1 1 -0.0398215 0.002246 0.00393476 0 0 0 -2.50498e-06 1.68725e-06 -1.00532e-06 9.65997e-07 2.9494e-07 1.59218e-07 -0.000174626 -0.00034352 -3.13594e-05 0.004 302.947 0.853098 
666 1 1 -0.00454677 0.00045141 0.00395604 0 0 0 -4.01128e-06 3.75508e-06 2.42422e-06 1.69876e-06 3.05746e-06 -1.8025e-07 -0.000137677 5.51394e-05 0.000103687 0.004 482.371 3.38426 
815 1 1 0.00434367 0.00243559 0.00392711 0 0 0 -5.28642e-06 3.51532e-06 3.37973e-06 2.0176e-06 3.64628e-06 9.64751e-08 -1.63775e-05 -0.000902688 0.000512273 0.004 622.063 -3.89494 
306 1 1 0.01637 0.00247665 0.0039581 0 0 0 -3.16049e-06 4.66089e-06 2.07608e-06 -5.32782e-07 3.0187e-06 -8.84202e-08 -0.00122158 -0.000950233 -0.000845515 0.004 755.038 -5.91093 
178 1 1 0.0241042 0.00444175 0.00386115 0 0 0 -2.23825e-06 2.19357e-06 3.46141e-06 -8.12493e-07 1.87056e-06 -8.77328e-07 -0.000526394 -0.000313782 0.000125538 0.004 777.517 -3.85776 
862 1 1 0.0320656 0.00423367 0.00393098 0 0 0 -1.64327e-06 3.43161e-06 1.97352e-06 3.4739e-07 1.5603e-07 -7.5692e-07 -0.000410905 7.39339e-05 0.000105595 0.004 792.772 -1.78718 
661 1 1 0.0398756 0.0029147 0.00394681 0 0 0 -1.41626e-06 9.30437e-07 1.38192e-06 5.71979e-07 9.18277e-07 -9.06414e-07 8.91774e-05 -0.000115255 -0.000418591 0.004 797.889 -0.702227 
677 1 1 -0.0453782 0.00788539 0.00393641 0 0 0 -9.62392e-07 9.54645e-07 -7.54329e-07 4.63156e-07 1.65886e-07 1.69469e-07 -2.33762e-05 1.99961e-05 2.23683e-05 0.004 301.114 0.429351 
12 1 1 -0.0333161 0.00671959 0.00393696 0 0 0 -2.98005e-06 2.30183e-06 -9.43736e-07 8.45214e-07 6.91799e-07 1.20949e-07 -0.000236573 -0.00017101 5.08364e-05 0.004 308.535 1.86268 
420 1 1 -0.0254 0.00664837 0.00392686 0 0 0 -4.11027e-06 3.16097e-06 4.08551e-07 1.15888e-06 1.73298e-06 3.10419e-07 -0.000529391 -0.000616444 4.67329e-05 0.004 324.09 3.59014 
654 1 1 -0.0175134 0.00720945 0.00387212 0 0 0 -4.48231e-06 3.59173e-06 1.79234e-06 1.57589e-06 2.59047e-06 1.65382e-07 -0.000746835 -0.000568713 -7.07328e-05 0.004 357.408 5.37826 
145 1 1 -0.00454409 0.00836536 0.00386311 0 0 0 -4.22234e-06 3.34144e-06 2.98066e-06 1.73302e-06 2.90189e-06 -2.78528e-07 -0.000506967 -0.000797039 -0.000205421 0.004 479.453 3.80867 
624 1 1 0.0451449 0.00890653 0.00390657 0 0 0 -9.92137e-07 4.64682e-08 9.48564e-07 1.26039e-06 6.00679e-07 -8.31899e-07 -3.65135e-05 -0.000190463 5.62929e-05 0.004 798.872 -0.444584 
613 1 1 -0.0372991 0.0135339 0.00384344 0 0 0 -1.80112e-06 1.5634e-06 -1.0245e-06 8.53632e-07 4.80091e-07 2.88143e-07 -0.00011081 -0.000238905 -5.8544e-05 0.004 303.932 1.11786 
265 1 1 -0.0293062 0.0135429 0.00396372 0 0 0 -2.48073e-06 2.0465e-06 -1.02263e-06 5.16415e-07 9.25162e-07 -2.88424e-08 3.65256e-05 3.46539e-06 -3.57333e-05 0.004 313.479 2.72836 
273 1 1 -0.0213694 0.0141274 0.00392939 0 0 0 -3.03321e-06 2.34719e-06 -6.08948e-07 7.3964e-07 1.68409e-06 -2.83235e-07 -0.000180533 -0.000514486 -0.000220294 0.004 331.07 4.48129 
492 1 1 -0.01145 0.0123712 0.00398079 0 0 0 -3.66345e-06 3.30319e-06 7.60328e-07 6.29313e-07 2.73958e-06 -7.33459e-07 -0.000456554 -0.000381178 -2.61511e-06 0.004 400.63 7.27268 
234 1 1 0.00585284 0.010393 0.00392891 0 0 0 -4.35536e-06 2.99308e-06 3.24616e-06 1.72271e-06 4.01181e-06 -1.70421e-07 -0.000712142 -0.000506423 -0.000638136 0.004 611.193 -2.50053 
160 1 1 0.0142843 0.0106356 0.00390958 0 0 0 -3.97596e-06 2.39283e-06 3.44354e-06 1.20672e-06 3.21347e-06 -5.33942e-07 -0.000449202 -0.000591796 -0.000122043 0.004 717.503 -5.47238 
484 1 1 0.0220893 0.0120738 0.00390121 0 0 0 -2.3366e-06 1.96432e-06 2.43146e-06 1.05837e-06 1.99746e-06 -1.37109e-06 -0.000286687 -7.05983e-05 -0.000171615 0.004 765.74 -4.36778 
743 1 1 0.0300184 0.0126216 0.00398127 0 0 0 -1.13526e-06 7.22484e-07 8.15195e-07 1.02775e-06 2.12694e-06 1.58487e-07 -0.000278722 0.000136344 -0.000140159 0.004 785.664 -2.76311 
514 1 1 0.0379536 0.0130186 0.00386906 0 0 0 -1.19703e-06 2.31492e-07 1.30122e-06 1.0837e-06 5.66273e-07 -1.15887e-06 6.68481e-05 -0.000279438 0.000163089 0.004 795.362 -1.2592 
530 1 1 -0.0159002 0.0198648 0.00392796 0 0 0 -2.16056e-06 1.7767e-06 6.46148e-07 6.47829e-07 1.79466e-06 -2.44307e-07 -0.000357279 -0.000491893 -4.6961e-05 0.004 355.255 5.78345 
227 1 1 -0.00736504 0.0192084 0.00396596 0 0 0 -1.83237e-06 1.89846e-06 1.24818e-06 1.2555e-06 1.79194e-06 -4.22283e-07 -3.52239e-05 -0.000268429 -0.00065502 0.004 445.358 6.27274 
392 1 1 -0.000498642 0.0151513 0.00394447 0 0 0 -3.18837e-06 3.05189e-06 1.73124e-06 1.74829e-06 2.38613e-06 -6.44448e-07 -0.000423255 -0.000125787 0.000238026 0.004 526.648 2.1085 
493 1 1 0.00985838 0.0172531 0.00394648 0 0 0 -2.3291e-06 1.48614e-06 2.11742e-06 2.09306e-06 4.03727e-06 -1.2208e-06 -6.59594e-05 -6.84445e-05 0.000260391 0.004 662.79 -4.16096 
34 1 1 0.0176357 0.0187852 0.00394101 0 0 0 -1.67915e-06 1.72719e-06 2.06281e-06 1.4434e-06 2.66836e-06 -2.50565e-06 -0.000322284 -0.000163579 -0.000128165 0.004 728.989 -5.13434 
206 1 1 0.0255397 0.0192353 0.00396994 0 0 0 -1.00674e-06 7.52206e-07 1.44816e-06 9.11094e-07 1.51609e-06 -1.81826e-06 0.000190705 0.000204112 -6.52629e-05 0.004 771.095 -3.88159 
104 1 1 0.0334175 0.0199346 0.00389651 0 0 0 -1.15806e-06 -3.83018e-07 1.34376e-06 1.08982e-06 -9.03248e-08 -9.10551e-07 6.44423e-05 -0.000294339 5.82299e-06 0.004 788.756 -2.32346 
809 1 1 -0.0412059 0.0204949 0.00395497 0 0 0 -6.72495e-07 7.10776e-07 -5.56417e-07 4.06778e-07 3.85006e-07 2.1479e-07 3.78552e-05 -8.64344e-05 -7.86459e-05 0.004 301.819 0.688184 
773 1 1 -0.0331523 0.0204531 0.00393522 0 0 0 -1.37331e-06 1.59995e-06 -6.93447e-07 5.49589e-07 7.96084e-07 2.13539e-07 -7.83241e-05 -0.00025502 -0.000163219 0.004 307.91 2.01822 
792 1 1 0.00347676 0.0219735 0.00392106 0 0 0 -9.95564e-07 1.72344e-06 1.27552e-06 1.86039e-06 2.64594e-06 -7.80256e-07 -9.00657e-05 -0.000246254 -0.000824154 0.004 589.563 -1.25317 
718 1 1 0.0413199 0.0203659 0.00392989 0 0 0 -4.89247e-07 -1.38845e-07 8.18962e-07 6.93332e-07 -3.31502e-07 -5.98074e-07 1.14424e-05 9.67283e-05 -4.07488e-05 0.004 795.641 -1.26271 
101 1 1 -0.0371146 0.0272995 0.00390402 0 0 0 -6.56115e-07 9.99688e-07 -6.64467e-07 2.94523e-07 3.92348e-07 9.56334e-08 -0.000123742 -5.53843e-05 7.00715e-05 0.004 304.879 1.46697 
246 1 1 -0.0290567 0.0272807 0.00398271 0 0 0 -4.2539e-07 9.62131e-07 -2.27185e-07 5.15427e-07 4.34543e-07 2.37303e-07 -2.98835e-05 6.97404e-06 -7.80783e-05 0.004 310.117 2.37563 
331 1 1 -0.0212281 0.0257798 0.00390019 0 0 0 -1.17666e-06 1.15387e-06 -5.02931e-07 7.42045e-07 9.51314e-07 -1.38354e-07 -0.000163946 -6.13242e-05 -0.000100101 0.004 332.407 4.36519 
846 1 1 -0.0134708 0.0274168 0.00397481 0 0 0 -1.76821e-06 1.42567e-06 -2.62702e-07 8.06784e-07 2.02924e-06 -1.95082e-07 -0.000251536 -0.00023384 0.000159132 0.004 378.456 5.58472 
348 1 1 -0.00329917 0.0260611 0.00393375 0 0 0 -5.74867e-07 1.51301e-06 1.23343e-06 2.81295e-06 1.03599e-06 8.05693e-08 -0.000151811 4.66296e-05 0.000513702 0.004 504.897 2.90675 
786 1 1 0.00840351 0.0281551 0.00389686 0 0 0 5.29004e-07 1.8008e-06 9.42544e-07 2.58761e-06 5.68907e-07 -2.78505e-06 -0.000400052 -8.97137e-05 0.000710668 0.004 646.208 -4.01129 
316 1 1 0.0162833 0.0272928 0.00390631 0 0 0 2.573e-06 2.6304e-06 1.21405e-06 4.35908e-07 9.61053e-07 -2.02618e-06 -0.000203681 0.000232014 -0.000558738 0.004 726.011 -5.67473 
495 1 1 0.0288861 0.0264618 0.00396717 0 0 0 2.59518e-06 7.26143e-07 1.07915e-06 -1.49879e-06 -8.24312e-07 -2.27144e-06 -3.63357e-05 0.000368648 -0.00108785 0.004 782.778 -3.26864 
863 1 1 0.0367263 0.0277633 0.00392937 0 0 0 9.97462e-07 -8.50197e-07 2.41199e-07 -7.66884e-07 1.26448e-06 -3.1808e-07 6.81898e-05 -3.70796e-05 0.00049467 0.004 793.633 -1.78961 
511 1 1 -0.00761836 0.0327132 0.00388554 0 0 0 -1.1617e-06 7.57674e-07 2.45447e-07 3.21049e-06 7.35813e-07 4.88304e-07 -0.000144199 -0.000321332 -0.000358795 0.004 464.133 4.26645 
722 1 1 0.00164031 0.0322874 0.00396636 0 0 0 -2.57749e-09 9.79074e-07 5.50227e-07 4.51885e-06 3.67785e-06 -2.22488e-06 -7.83009e-05 0.00014547 -0.000476987 0.004 570.037 -0.888719 
2 1 1 0.022931 0.0316959 0.00396245 0 0 0 6.86995e-06 4.83131e-06 1.37949e-07 -4.93679e-06 -3.43929e-06 -3.12016e-06 -0.00123959 0.000554017 6.67034e-05 0.004 762.159 -4.44432 
254 1 1 0.0304175 0.0345099 0.00398151 0 0 0 -0.000201419 0.000672496 3.46369e-06 5.46163e-05 -0.000267493 8.09273e-06 -0.177785 -0.0416828 -0.048172 0.004 799.632 -1.21007 
257 1 1 -0.0296322 0.0352231 0.00395613 0 0 0 -5.86392e-08 8.06864e-07 -4.64602e-07 5.30593e-07 3.93121e-07 4.57716e-08 -0.000148526 8.41468e-05 0.000120899 0.004 310.252 2.62025 
582 1 1 -0.0157655 0.0356205 0.00393205 0 0 0 -1.41557e-07 6.7594e-07 -2.36226e-07 1.45343e-06 7.28154e-07 -5.02071e-07 -0.000145312 -2.31534e-05 -1.0087e-05 0.004 340.607 5.74302 
255 1 1 -0.00267126 0.038932 0.00391149 0 0 0 -2.7418e-07 7.50885e-07 3.06075e-07 2.79808e-06 1.7689e-06 -1.37843e-06 -0.000144333 -0.000106237 0.000274832 0.004 510.815 2.05981 
887 1 1 0.00812082 0.0373183 0.00392889 0 0 0 1.60711e-06 3.6223e-07 1.21728e-06 3.2563e-06 3.58924e-06 -2.0212e-06 -0.000297968 0.000153248 1.81819e-05 0.004 678.504 -6.77236 
719 1 1 0.0157852 0.0351951 0.00398364 0 0 0 3.95767e-06 2.12577e-06 9.28052e-08 -1.6586e-06 1.05099e-06 -2.17694e-06 -0.00032274 0.000566736 0.000622256 0.004 733.678 -6.77597 
21 1 1 0.0234242 0.0396338 0.00391498 0 0 0 2.204e-06 8.16298e-07 -1.24832e-06 8.83125e-08 -7.67259e-07 -5.17955e-07 0.000325893 0.000226764 0.000503231 0.004 765.617 -5.27086 
325 1 1 -0.0222388 0.0402984 0.00393951 0 0 0 1.34203e-07 4.59217e-07 -5.75779e-08 5.87912e-07 3.30174e-07 1.50715e-07 -5.3922e-05 6.76785e-05 4.34543e-05 0.004 330.248 5.17316 
595 1 1 -0.014931 0.0435393 0.00398255 0 0 0 -1.52094e-07 2.59091e-07 -2.16468e-07 4.60098e-07 1.48551e-07 -3.87709e-07 4.34764e-05 -2.68906e-05 5.09605e-06 0.004 365.267 5.91399 
568 1 1 0.0162912 0.0430934 0.0039263 0 0 0 9.15061e-07 4.90174e-07 -3.86196e-07 1.35332e-06 9.99704e-07 -6.93795e-07 8.92425e-06 9.67356e-05 2.84818e-05 0.004 728.912 -6.47778 
387 1 1 -0.00719691 0.045487 0.00389933 0 0 0 -4.39801e-07 2.57905e-07 2.15287e-08 4.71692e-07 4.94037e-07 -1.01672e-06 -1.86969e-05 -6.30101e-05 -5.13244e-05 0.004 466.962 4.09123 
852 1 1 0.000758884 0.0460615 0.00397618 0 0 0 -3.96053e-07 1.86883e-07 2.58489e-07 4.94841e-07 9.19681e-07 -6.9973e-07 -5.64558e-05 -0.000127589 -0.000187749 0.004 557.745 -0.902199 
157 1 1 0.00865316 0.0452492 0.00389825 0 0 0 4.964e-07 -2.70862e-07 3.9016e-07 1.76562e-06 1.25282e-06 -3.67764e-07 7.51368e-05 0.000124702 0.000165031 0.004 662.594 -5.62234 
400 1 1 -0.024752 -0.0387964 0.00974417 0 0 0 -1.26957e-06 2.36151e-06 4.0785e-07 1.91401e-06 -2.91951e-07 1.14593e-06 -0.000136065 -6.18626e-05 1.37421e-05 0.004 327.692 4.94579 
606 1 1 -0.000653943 -0.0387266 0.0081389 0 0 0 -2.43349e-06 7.68666e-06 3.84058e-06 1.8314e-06 1.09828e-06 2.30746e-06 0.000562167 -0.00108258 0.000624003 0.004 544.259 0.949848 
724 1 1 -0.0339144 -0.0311598 0.00984801 0 0 0 -1.98125e-06 2.37446e-06 5.99613e-07 1.52428e-06 7.54011e-08 8.7669e-08 -0.000154233 -0.000405475 0.000254784 0.004 309.157 2.24659 
183 1 1 0.0251947 -0.0311656 0.00751474 0 0 0 -2.81049e-06 3.57931e-06 5.99317e-06 -1.6089e-07 2.57797e-06 -9.58144e-07 0.000673638 -0.000176868 2.23275e-05 0.004 768.476 -4.75849 
544 1 1 -0.0140218 -0.0253028 0.00874962 0 0 0 -8.29793e-06 1.1925e-05 2.48633e-06 4.09503e-06 2.70029e-06 1.92141e-06 -0.00052835 -0.000201831 7.74568e-05 0.004 383.063 5.85471 
29 1 1 -0.0045063 -0.0263794 0.00900726 0 0 0 -8.73504e-06 1.27765e-05 5.83697e-06 4.29304e-06 2.58435e-06 3.23827e-06 -0.000797585 -0.000839731 0.000452033 0.004 476.576 4.25657 
248 1 1 0.003499 -0.0278426 0.00763306 0 0 0 -3.14587e-06 9.59521e-06 4.75137e-06 1.65562e-06 1.95235e-06 2.34148e-06 0.00132998 -0.000933209 -0.000494641 0.004 600.102 -2.4373 
79 1 1 0.035837 -0.0289489 0.00959647 0 0 0 -1.90718e-06 2.56606e-06 3.48909e-06 2.07225e-07 3.43202e-07 -1.65199e-06 -0.000215401 0.000728288 -0.000462926 0.004 789.632 -2.52033 
291 1 1 -0.00458873 -0.0173975 0.00909521 0 0 0 -8.72481e-06 1.10332e-05 2.52094e-06 4.45184e-06 3.21718e-06 2.84623e-06 -0.000160284 0.00101663 -0.000365551 0.004 494.612 2.42243 
891 1 1 0.00373488 -0.015528 0.00632507 0 0 0 -5.21252e-06 8.68227e-06 5.10322e-06 2.53309e-06 3.16174e-06 1.97494e-06 0.00123244 0.000376901 0.000281764 0.004 597.552 -1.97023 
870 1 1 0.0138323 -0.0156364 0.00831015 0 0 0 -8.50848e-06 9.66454e-06 8.45534e-06 2.36282e-06 4.20854e-06 2.72515e-06 -0.000504846 -0.000166046 -0.000467179 0.004 711.253 -6.01506 
777 1 1 0.034969 -0.018778 0.00771 0 0 0 -1.24399e-06 2.79114e-06 2.55564e-06 3.14621e-07 2.95212e-06 3.10034e-07 0.000587211 -0.000154936 -1.93188e-05 0.004 793.937 -1.6133 
837 1 1 -0.029449 -0.0146727 0.00803325 0 0 0 -7.80274e-06 5.13233e-06 -3.11671e-07 2.16133e-06 7.21402e-07 -2.8757e-07 -0.000353537 0.000231905 0.000629832 0.004 312.751 2.45767 
445 1 1 -0.0181359 -0.0138493 0.00995274 0 0 0 -1.31937e-05 1.29349e-05 3.47397e-06 5.55091e-06 5.2909e-06 7.11962e-07 -0.000438016 -0.000210764 0.000627495 0.004 354.193 5.22141 
783 1 1 0.00485897 -0.0086066 0.00993767 0 0 0 -1.25083e-05 1.19516e-05 7.97635e-06 2.34292e-06 4.3244e-06 1.85214e-06 -0.0012309 -0.000792387 0.00148996 0.004 616.17 -3.11809 
615 1 1 -0.0350999 -0.000758731 0.00955181 0 0 0 -6.67551e-06 5.36522e-06 -7.96865e-08 2.07277e-06 1.34857e-06 1.72846e-07 -0.000495653 -0.000406859 0.00055448 0.004 305.338 1.31147 
476 1 1 -0.0459522 0.00262139 0.00988977 0 0 0 -1.71493e-06 1.71838e-06 -1.18964e-06 7.8082e-07 6.7896e-08 1.96698e-07 6.20687e-05 0.000119634 -2.17399e-05 0.004 300.736 0.311905 
16 1 1 -0.0210456 0.00169435 0.00830925 0 0 0 -8.75484e-06 7.21846e-06 3.50813e-06 2.7879e-06 3.96091e-06 7.19489e-07 -0.000304925 -6.67138e-05 9.78848e-05 0.004 337.735 4.57988 
303 1 1 0.0459492 0.00350463 0.00962657 0 0 0 -1.51213e-06 8.19252e-07 2.13047e-06 6.11033e-07 1.19856e-06 -1.64831e-06 -0.000172793 0.000494113 -0.000213903 0.004 799.021 -0.396604 
523 1 1 -0.0389797 0.00803079 0.0093286 0 0 0 -4.04341e-06 3.4226e-06 -1.92149e-06 1.65852e-06 9.87672e-07 4.79589e-07 -0.000265476 -0.000218665 -1.84642e-05 0.004 302.973 0.882578 
704 1 1 -0.010798 0.00519219 0.0074386 0 0 0 -7.82782e-06 6.41199e-06 3.93399e-06 2.97113e-06 5.37402e-06 3.1736e-07 -0.000238077 -0.000232364 -0.000388077 0.004 409.229 5.50605 
454 1 1 0.00101178 0.00715928 0.00933957 0 0 0 -9.53421e-06 6.34355e-06 7.10295e-06 3.31497e-06 6.56713e-06 -4.28371e-07 -9.00016e-05 -0.000145525 -0.000105735 0.004 554.611 -0.0224633 
31 1 1 0.0102164 0.00547588 0.00832591 0 0 0 -9.88065e-06 7.13672e-06 8.57519e-06 1.57579e-06 5.5271e-06 -2.07517e-07 -0.00104619 -0.000401423 -0.000398295 0.004 672.685 -5.05788 
135 1 1 0.0188886 0.00749168 0.00960784 0 0 0 -7.2342e-06 4.50341e-06 4.829e-06 -7.34805e-07 5.55893e-06 -1.39908e-06 0.000529415 -0.00105407 0.00046989 0.004 763.776 -5.21169 
712 1 1 0.0281139 0.00743265 0.00998857 0 0 0 -5.95334e-06 2.36097e-06 5.80718e-06 9.81177e-08 9.07e-07 -2.37328e-06 0.00085973 -0.000449088 0.000501798 0.004 785.377 -2.98165 
210 1 1 0.0394934 0.00814606 0.00989881 0 0 0 -3.83041e-06 1.36537e-06 3.00577e-06 2.01318e-06 9.64826e-07 -2.26148e-06 -0.000276376 -0.000759288 -0.00013213 0.004 797.524 -0.808477 
651 1 1 -0.0437987 0.0143398 0.00823566 0 0 0 -1.55458e-06 1.39541e-06 -1.14762e-06 7.42748e-07 4.33011e-07 2.66536e-07 -9.96093e-05 -1.88576e-05 7.97305e-05 0.004 301.619 0.593631 
621 1 1 0.0437181 0.0147846 0.00900766 0 0 0 -1.54383e-06 2.93681e-07 1.48774e-06 1.35696e-06 2.41505e-07 -1.25253e-06 -0.000200727 0.000142739 -0.000178562 0.004 797.072 -0.901745 
726 1 1 -0.0257657 0.0199972 0.00692824 0 0 0 -2.02079e-06 2.15399e-06 -5.47588e-07 1.16322e-06 1.12836e-06 6.53547e-07 0.000198734 0.000162364 -5.89003e-05 0.004 318.321 3.39757 
230 1 1 -0.00847469 0.0245949 0.00973777 0 0 0 -2.01487e-06 2.92e-06 1.82758e-06 3.03397e-06 4.44388e-06 -1.19687e-06 -0.000395106 -0.000319648 1.99824e-05 0.004 450.696 5.09229 
320 1 1 -0.00171268 0.0204049 0.00979387 0 0 0 -3.65058e-06 4.16605e-06 2.94449e-06 2.89577e-06 3.69157e-06 -9.44668e-07 0.00034632 0.000183075 -7.80183e-05 0.004 522.229 2.64397 
7 1 1 0.012921 0.0224303 0.0091852 0 0 0 -2.34695e-06 3.97212e-06 2.27752e-06 5.93256e-06 4.76092e-06 -2.47151e-06 -0.000271363 -0.000437151 -0.000631566 0.004 700.292 -5.41219 
83 1 1 0.0214164 0.0239651 0.00888427 0 0 0 3.86849e-07 2.46952e-06 2.10225e-06 2.9397e-06 2.81415e-06 -3.09593e-06 -0.000721811 -0.000287318 -0.000865844 0.004 763.346 -4.63615 
747 1 1 -0.0337321 0.0313835 0.00974072 0 0 0 -7.87978e-07 1.70304e-06 -1.56463e-06 8.30536e-07 7.32616e-07 1.55054e-07 7.43334e-05 0.00023723 8.11455e-05 0.004 310.412 2.44172 
51 1 1 -0.0226192 0.0329654 0.00703451 0 0 0 -5.47461e-07 1.34278e-06 -6.9353e-07 1.21531e-06 8.33914e-07 -8.32456e-09 9.6047e-05 -0.00015328 -0.000213553 0.004 321.543 4.15395 
116 1 1 -0.00940736 0.0391203 0.00809818 0 0 0 -7.43078e-07 7.77264e-07 -1.01474e-07 3.62762e-06 1.36875e-06 -4.40724e-07 7.54466e-05 1.50875e-05 -6.09484e-05 0.004 451.873 5.09735 
205 1 1 -0.000560459 -0.0460776 0.0110171 0 0 0 -1.72642e-06 4.1432e-06 7.13847e-07 1.00769e-06 9.4396e-07 1.66403e-06 -6.83442e-06 -1.79023e-05 2.00238e-05 0.004 540.536 2.78346 
836 1 1 0.00737985 -0.0454689 0.0106611 0 0 0 -1.91274e-06 4.17782e-06 2.6171e-06 4.45675e-07 7.86555e-07 9.7802e-07 0.000229453 -0.000868031 0.00012277 0.004 621.758 -3.77294 
486 1 1 -0.0156916 -0.0402432 0.0103351 0 0 0 -1.57817e-06 4.03295e-06 7.98476e-08 3.01945e-06 5.82751e-07 1.55817e-06 0.000822193 -0.00039624 0.00109261 0.004 367.613 6.73533 
311 1 1 -0.00836811 -0.0439882 0.010679 0 0 0 -3.73926e-06 6.7266e-06 2.78458e-06 2.47848e-06 1.04043e-06 2.5378e-06 -0.000898538 -0.000525497 -0.000122126 0.004 414.658 8.62349 
447 1 1 0.0180551 -0.0423881 0.0118323 0 0 0 -1.7729e-06 4.27135e-06 3.64081e-06 8.60945e-07 7.44512e-07 5.49954e-07 0.000173494 0.000848889 -0.000331846 0.004 714.929 -6.79197 
538 1 1 -0.0295743 -0.035351 0.0149849 0 0 0 -2.51155e-06 3.5542e-06 7.87168e-07 2.64526e-06 8.75435e-07 4.79619e-07 4.83388e-06 -2.73837e-05 0.000469773 0.004 316.607 3.31669 
279 1 1 0.011155 -0.0385417 0.0114152 0 0 0 -4.57718e-06 8.65658e-06 6.36144e-06 1.42716e-06 1.45761e-06 2.07309e-06 -0.000695375 -0.000315799 0.000175952 0.004 666.893 -5.28526 
110 1 1 0.0250464 -0.0386627 0.0117241 0 0 0 -1.60081e-06 3.34307e-06 2.32292e-06 6.91409e-07 5.62178e-07 -6.58818e-07 9.41263e-05 -4.05549e-05 -0.000111106 0.004 754.668 -5.87715 
188 1 1 -0.0179041 -0.0321007 0.0101563 0 0 0 -5.79216e-06 1.04589e-05 2.57727e-06 3.70251e-06 2.52577e-06 2.88268e-06 -0.000834943 -0.000441728 0.000834876 0.004 360.09 5.76706 
810 1 1 -0.0102601 -0.034451 0.0102036 0 0 0 -5.99768e-06 1.09585e-05 4.52874e-06 3.10676e-06 2.17143e-06 3.48805e-06 -0.000600726 -0.000867867 0.000726592 0.004 417.816 5.77597 
412 1 1 -0.00316745 -0.0328806 0.0133526 0 0 0 -8.72285e-06 1.48126e-05 8.24918e-06 3.78928e-06 3.32176e-06 4.9748e-06 -0.000120153 -0.000184289 5.09947e-05 0.004 493.445 3.08846 
545 1 1 0.00452053 -0.0343088 0.0121941 0 0 0 -7.29291e-06 1.16226e-05 5.68153e-06 2.68397e-06 2.21874e-06 3.9006e-06 -0.00106995 0.000475846 8.74539e-05 0.004 602.906 -2.34337 