ITEM: TIMESTEP
6400
ITEM: NUMBER OF ATOMS
891
ITEM: BOX BOUNDS mm mm mm
-0.05 0.05
-0.05 0.05
0 0.15
ITEM: ATOMS id type type x y z ix iy iz vx vy vz fx fy fz omegax omegay omegaz radius f_Temp[0] f_heatFlux[0] 
199 1 1 -0.0041809 -0.0458468 0.00395643 0 0 0 -0.00273213 -0.00314577 0.00306488 0.00697258 -0.00653895 -0.0170846 0.170166 -1.03487 0.609042 0.004 300 0 
873 1 1 -0.0198608 -0.0416104 0.00389912 0 0 0 -0.00170317 -0.00147544 0.00401733 -0.0347957 0.00779621 -0.00357849 0.205758 0.0360009 -0.241175 0.004 300 0 
485 1 1 -0.0123614 -0.0443386 0.00394606 0 0 0 -0.00878904 0.00300785 -0.00738768 0.00801194 -0.00958752 -0.0118256 -1.75383 -1.787 1.40634 0.004 300 0 
850 1 1 0.0035225 -0.0436026 0.00397486 0 0 0 0.0126473 -0.0311847 -0.000632687 -0.00356372 -0.00218407 -0.0184917 0.700113 -0.386243 -0.937707 0.004 300 0 
186 1 1 0.0114575 -0.044598 0.00388346 0 0 0 0.0231574 0.0058446 -0.0262161 -0.0428608 0.00549019 0.0976375 0.352538 5.02318 1.27168 0.004 300 0 
560 1 1 0.0189321 -0.0419804 0.00393426 0 0 0 0.0157477 0.0110925 -0.0120902 -0.0022676 0.00580062 0.00621112 -0.212959 -0.0558756 -1.7925 0.004 300 0 
102 1 1 -0.0145105 -0.0358306 0.00386351 0 0 0 -0.00186669 -0.00220769 -0.00036521 -0.00691608 -0.00406382 -0.0152857 -0.0303584 0.446203 0.974607 0.004 300 0 
88 1 1 -0.00701876 -0.038424 0.0039212 0 0 0 -0.000763001 -0.00442979 -0.000956103 0.00213896 -0.00780358 -0.0108493 0.344166 -0.0613625 -1.12785 0.004 300 0 
776 1 1 0.00518241 -0.0355059 0.00395913 0 0 0 0.00887914 0.0433883 0.00433192 0.0176868 0.00639407 -0.00550843 -1.96329 -0.0786173 -1.20799 0.004 300 0 
282 1 1 0.0258208 -0.0380976 0.00392423 0 0 0 0.0137522 0.00615115 -0.00582277 0.011806 0.0110121 0.0164998 0.971314 -0.609679 0.784799 0.004 300 0 
682 1 1 -0.0300664 -0.0349353 0.00395075 0 0 0 0.00263285 -0.00313377 -0.000557914 -0.00279486 -0.00722743 0.00596294 -0.332541 0.0210824 -0.767392 0.004 300 0 
251 1 1 -0.0222167 -0.033981 0.0039434 0 0 0 0.00095002 -0.00608217 0.00307868 -0.0126785 -0.0147133 -0.0028149 0.719673 -0.855442 -0.488648 0.004 300 0 
770 1 1 -0.00204891 -0.0321795 0.00393994 0 0 0 -0.010359 0.00142623 0.00137789 0.00556403 -0.0137857 -0.0101665 -0.47506 0.465153 -0.797259 0.004 300 0 
883 1 1 0.0185893 -0.0313675 0.00391905 0 0 0 -0.0447979 0.0453273 -0.00888028 -0.0194921 0.00977452 -0.0133528 -3.19917 -2.92084 -2.30358 0.004 300 0 
838 1 1 0.0320081 -0.0331675 0.00392292 0 0 0 0.0186195 0.00228599 -0.00343726 -2.68823e-05 0.00339586 0.00227576 -0.556049 -1.18168 -3.29794 0.004 300 0 
617 1 1 -0.0369432 -0.027481 0.00390846 0 0 0 0.0046248 -0.00586345 -0.00129532 -0.00441792 0.0015569 0.00409397 1.39793 1.39002 -0.875055 0.004 300 0 
824 1 1 -0.028892 -0.0271045 0.00393612 0 0 0 0.000795097 -0.00722367 -0.014513 -0.0165186 0.00338033 -0.00776606 1.46153 0.912163 -1.52586 0.004 300 0 
571 1 1 -0.0202822 -0.0262754 0.00395377 0 0 0 -0.0087971 -0.00775085 -0.00793079 -0.00615156 -0.0138877 -0.00403221 1.37288 -2.26116 -3.94345 0.004 300 0 
861 1 1 -0.00955706 -0.0296415 0.00394451 0 0 0 -0.00463598 -0.00716157 -0.00405201 0.00737285 0.00133124 -0.0153146 0.735476 -2.05281 3.37977 0.004 300 0 
434 1 1 0.0106334 -0.0293194 0.00394877 0 0 0 -0.0257986 -0.00147836 -0.00617888 0.0085637 0.00530605 -0.00501357 3.9789 -5.43601 3.44949 0.004 300 0 
103 1 1 0.0311241 -0.0253087 0.003898 0 0 0 0.0108582 -8.39503e-05 -0.0112449 0.00719289 -0.00735639 -0.02131 -1.05894 1.71294 6.11858 0.004 300 0 
769 1 1 -0.0411438 -0.0207296 0.00454945 0 0 0 0.00771914 -0.0118332 0.0065612 -0.00603112 0.0277084 -0.0077484 3.70679 0.437768 -1.34733 0.004 300 0 
94 1 1 -0.0332342 -0.0204631 0.00393292 0 0 0 0.00222106 -0.00734395 -0.00563919 -0.00757213 0.00406057 0.00114529 -0.686318 3.19277 1.23371 0.004 300 0 
40 1 1 -0.0252203 -0.0200559 0.00392083 0 0 0 -0.00228574 -0.0052504 -0.00378826 -0.00640553 0.000395418 -0.0137446 1.82042 -0.499306 1.76973 0.004 300 0 
19 1 1 -0.00866758 -0.0217516 0.00392737 0 0 0 -0.00807493 -0.0030034 0.00270604 0.00444091 -0.00446774 0.00212094 0.167146 -1.89486 -2.59504 0.004 300 0 
442 1 1 -0.000685751 -0.0214792 0.0039303 0 0 0 0.00890923 -0.018781 0.000825004 0.00548905 -0.013503 -0.00223312 2.464 1.31518 0.14969 0.004 300 0 
259 1 1 0.00728131 -0.0221036 0.00391858 0 0 0 0.0121675 0.00192359 -0.000547549 -0.00437967 0.00468339 -0.00426387 0.784805 0.442248 -5.44871 0.004 300 0 
512 1 1 0.0152055 -0.0227534 0.00396119 0 0 0 0.00615101 -0.0438738 0.00182587 0.00782831 0.0071301 -0.0134237 -2.38589 0.128716 1.64828 0.004 300 0 
470 1 1 0.0232128 -0.0243484 0.00395972 0 0 0 0.00607568 -0.022131 0.00139614 -0.00136149 0.0089688 -0.0129925 1.03932 0.59372 0.668428 0.004 300 0 
451 1 1 0.0390135 -0.0245026 0.003918 0 0 0 0.0108985 -0.00302783 -0.00885141 -0.00279633 0.00759099 0.00459069 -1.10969 -0.45214 -0.534373 0.004 300 0 
531 1 1 -0.016079 -0.0188522 0.00395417 0 0 0 -0.000759403 -0.00994474 -0.0243213 -0.0223723 -0.0358475 0.0117845 -0.958718 2.68408 5.63177 0.004 300 0 
229 1 1 0.0203557 -0.0166797 0.00389057 0 0 0 -0.0200541 -0.0205781 -0.00154047 0.00922511 -0.00034448 -0.00090701 2.97608 -1.39186 -3.17014 0.004 300 0 
734 1 1 0.0281655 -0.0179709 0.00393535 0 0 0 -0.0256848 -0.0206311 -0.00647361 0.00965814 0.00267643 0.0164878 2.91343 -3.15926 2.4333 0.004 300 0 
635 1 1 0.0425956 -0.0174677 0.00391413 0 0 0 0.00204405 -0.00145146 0.00349422 0.00147846 -0.00132192 -0.005032 0.852194 0.771809 0.436314 0.004 300 0 
87 1 1 -0.0448039 -0.0105101 0.00394492 0 0 0 0.00254649 0.0118329 0.00432863 0.00576686 -0.00870257 -0.00844394 -1.6296 0.0309388 0.922958 0.004 300 0 
406 1 1 -0.0374845 -0.0137079 0.0039267 0 0 0 -0.00324016 -0.00158762 0.0084128 0.00772724 0.0174451 -0.00395692 1.55798 -1.03626 -1.63101 0.004 300 0 
224 1 1 -0.0231683 -0.012412 0.00391077 0 0 0 -0.00221022 -0.00531767 -0.00371367 0.00603999 0.00361372 0.00030373 0.849926 -0.967239 0.447277 0.004 300 0 
751 1 1 -0.00969531 -0.0139077 0.00395099 0 0 0 -0.00297532 -0.00245444 -0.00416583 0.00491017 -0.00611492 0.00674939 -0.963695 -0.030477 1.31058 0.004 300 0 
622 1 1 -0.00215958 -0.0113722 0.00384038 0 0 0 0.00596665 -0.00192732 -0.00430646 -0.00238468 -0.00298679 0.00898325 0.197109 1.95076 -2.68992 0.004 300 0 
128 1 1 0.00951249 -0.0109995 0.003906 0 0 0 0.0121283 0.010068 0.000138294 -0.00763799 -0.00703121 0.012705 -2.27643 -3.08259 2.52273 0.004 300 0 
68 1 1 0.026831 -0.0101594 0.00395917 0 0 0 0.00697597 -0.0213093 -0.00943203 0.00995028 -0.00174701 -0.00208968 -0.30849 -1.98498 -9.88784 0.004 300 0 
791 1 1 0.0356418 -0.0130245 0.00395256 0 0 0 0.00451574 0.00941394 0.00686586 0.00733299 0.0142002 -0.00753459 1.74147 -1.78221 -8.44961 0.004 300 0 
354 1 1 -0.0383698 -0.00577229 0.00392245 0 0 0 0.0093677 0.000898381 -0.00736997 0.0113456 0.00595565 -0.021166 -0.0375244 2.61627 -3.62188 0.004 300 0 
725 1 1 -0.0307712 -0.00807565 0.0039085 0 0 0 -0.00274759 -0.000673993 -0.0040704 0.00418447 0.0101377 0.00183343 0.810066 -1.63687 1.16839 0.004 300 0 
353 1 1 -0.0159752 -0.00911603 0.00396613 0 0 0 -0.00792371 -0.00059676 -0.00907017 0.00879928 0.00981804 0.0102452 -1.719 0.94158 -0.634778 0.004 300 0 
391 1 1 -0.00864842 -0.00603259 0.00395909 0 0 0 0.00221058 -0.0177086 -0.0243894 0.013042 0.0135843 0.00544397 -1.50099 -2.39987 4.66113 0.004 300 0 
683 1 1 0.0172809 -0.009356 0.00388602 0 0 0 0.0179374 -0.0029853 -0.00332452 0.0121159 0.00426535 -0.0192537 -0.964073 -1.01593 -7.12621 0.004 300 0 
690 1 1 0.0383945 -0.00550226 0.00390161 0 0 0 0.00763851 0.00759819 0.00121052 -0.0039784 0.0097438 0.00371363 -1.70792 2.0588 -0.668565 0.004 300 0 
10 1 1 0.0449759 -0.00993056 0.0039688 0 0 0 0.0021387 -0.00135807 0.00158844 -0.00161725 -0.000824526 0.00118194 -0.993601 0.499099 -0.67317 0.004 300 0 
402 1 1 -0.0459908 -0.00264661 0.00393919 0 0 0 -0.00387085 -0.00111915 -0.0126561 0.00662017 -0.060588 -0.0580414 -1.60274 -0.887265 0.724103 0.004 300 0 
761 1 1 -0.0291832 -0.000349586 0.00394213 0 0 0 -0.0152512 -0.000396243 -0.00626439 -0.010235 -0.00382181 -0.0173416 -1.44218 -1.24622 0.788028 0.004 300 0 
293 1 1 -0.0224466 -0.0045229 0.00395049 0 0 0 -0.0117971 -0.00710029 -0.00943464 -0.00454749 0.00444288 0.00793023 -0.587395 -0.0263928 2.21321 0.004 300 0 
384 1 1 -0.0151989 -0.00120057 0.00391479 0 0 0 -0.00306403 0.000928128 -0.00454136 -0.0126531 0.0140518 0.0192284 1.49136 -1.39823 2.38616 0.004 300 0 
378 1 1 0.00234945 -0.00482353 0.0039176 0 0 0 -0.0143812 0.0126106 -0.00039578 -0.0266205 -0.00456024 -0.00680393 1.43052 -0.806243 0.971679 0.004 300 0 
390 1 1 0.0103764 -0.00311294 0.00396153 0 0 0 0.014622 0.0122262 -0.00976947 -0.0125478 0.0125285 0.0187417 2.12545 -0.465553 -2.6936 0.004 300 0 
411 1 1 0.0225802 -0.00344975 0.00394252 0 0 0 0.028905 -0.00677283 -0.00142286 0.00334595 -0.000742498 0.00972643 0.915678 4.38944 3.73009 0.004 300 0 
342 1 1 0.0307454 -0.00322793 0.00397367 0 0 0 0.00380398 -0.0201706 -0.00365443 0.00561615 0.0236515 0.00827332 1.79898 0.213534 -3.21968 0.004 300 0 
262 1 1 0.0459973 -0.0020776 0.00393632 0 0 0 0.0049226 -0.00350014 -0.0019729 0.00230858 -0.00435664 -0.00561576 0.135495 0.565518 0.0734356 0.004 300 0 
261 1 1 -0.0396536 0.00211697 0.00395177 0 0 0 0.00036711 0.00134996 0.00509038 -0.0110653 0.00969089 -0.0176305 0.231451 -1.90768 0.339639 0.004 300 0 
666 1 1 -0.00378535 0.00024061 0.00394447 0 0 0 -0.0286593 0.00274549 -0.000429728 0.00218112 0.00943471 0.011381 0.635299 -1.59335 0.833238 0.004 300 0 
815 1 1 0.00490062 0.00268439 0.00394257 0 0 0 -0.0110547 0.00472681 0.0054218 0.00273097 0.00563667 0.00372498 -1.58815 -2.88854 2.33808 0.004 300 0 
306 1 1 0.0160046 0.00249545 0.00396548 0 0 0 0.017358 0.00957609 -0.00314172 0.00226233 0.0145397 0.00675753 -3.21768 -2.53718 1.75825 0.004 300 0 
178 1 1 0.023714 0.00440505 0.00387388 0 0 0 0.0269132 -0.00714825 -0.00347053 0.00415195 -0.012005 0.00403214 1.78891 5.99441 -0.414484 0.004 300 0 
862 1 1 0.0321044 0.00462946 0.00391507 0 0 0 0.00340625 -0.0142185 -0.0103949 0.00619905 0.0196517 0.0128059 4.59094 1.0466 1.48925 0.004 300 0 
661 1 1 0.0398635 0.00297226 0.0039361 0 0 0 0.0036527 -0.0134049 0.0023291 -0.000859573 -0.00545911 -0.0101405 0.442626 0.831252 1.54072 0.004 300 0 
677 1 1 -0.0454003 0.00762137 0.00393512 0 0 0 0.0175303 0.0264852 -0.00623892 -0.00967549 0.000403909 -0.000354984 -4.0249 0.286211 -1.57559 0.004 300 0 
12 1 1 -0.0330447 0.00651539 0.00393312 0 0 0 -0.00794144 0.00723253 -0.000972439 -0.00948267 -0.0123549 0.00749627 0.820808 2.27809 -2.50934 0.004 300 0 
420 1 1 -0.0250755 0.00644338 0.00390408 0 0 0 -0.021672 -0.010873 -0.0128051 -0.0112209 -0.0190403 -0.000520025 -1.52816 -0.186475 -2.59542 0.004 300 0 
654 1 1 -0.0171312 0.00665032 0.0038606 0 0 0 -0.0280293 -0.00859046 -0.000859343 -0.00421143 0.0174294 0.0403914 3.81003 -7.77847 3.89947 0.004 300 0 
145 1 1 -0.00426871 0.00815807 0.00385811 0 0 0 -0.0221529 0.00470467 -0.0028114 -0.00700245 0.00149179 0.00891739 -1.49277 -5.29059 -2.78773 0.004 300 0 
624 1 1 0.0451776 0.00887957 0.0039133 0 0 0 0.00303025 -0.00466479 -0.00220925 -0.00257038 -0.00336199 -0.00131452 1.08006 1.19291 0.60588 0.004 300 0 
613 1 1 -0.0379235 0.0127022 0.00383262 0 0 0 0.00449787 0.0152139 -0.000531336 -0.00686232 0.00014199 -0.0192881 -4.48413 1.01502 -1.48708 0.004 300 0 
265 1 1 -0.0290345 0.0133548 0.00397174 0 0 0 0.00835107 0.00374294 0.0021052 -0.0124976 0.00317581 -0.00370376 2.38191 -1.95304 1.45928 0.004 300 0 
273 1 1 -0.0210802 0.0135437 0.00390623 0 0 0 0.0149678 0.0182707 -0.00177817 -0.0109416 0.00223866 0.0126216 1.20995 1.54077 -8.68695 0.004 300 0 
492 1 1 -0.0121377 0.0129309 0.00394951 0 0 0 0.00175797 -0.00940919 0.011615 -0.00152597 -0.00703512 0.0365464 2.19701 0.553131 -1.53527 0.004 300 0 
392 1 1 -0.000303425 0.0150197 0.00393072 0 0 0 -0.0445161 0.0109652 -0.00073458 0.000424974 -0.00728625 -0.0126646 -0.495283 4.3004 -0.921968 0.004 300 0 
234 1 1 0.00621791 0.010527 0.00392791 0 0 0 -0.0389398 0.0138204 0.00335249 -0.00529779 -0.000697906 0.0115363 -0.539461 -2.71571 3.46314 0.004 300 0 
160 1 1 0.0142982 0.0108882 0.00388827 0 0 0 0.00661428 -0.000311255 -0.000636925 0.00991938 0.00570144 0.00475178 0.299728 1.64064 -6.53662 0.004 300 0 
484 1 1 0.0221403 0.0121704 0.00392709 0 0 0 0.00024128 -0.0140303 0.000975837 0.00811792 -0.0248119 -0.0100473 1.60196 -0.89176 3.25219 0.004 300 0 
743 1 1 0.0300764 0.0126624 0.0039817 0 0 0 0.00160952 -0.0354589 0.00178715 -0.000793334 -0.00704145 0.000652617 1.52982 1.47938 -0.665335 0.004 300 0 
514 1 1 0.0380206 0.012785 0.00388831 0 0 0 0.00317756 0.00891338 -0.00484336 0.00827439 0.00388501 0.00106003 -1.96017 1.51716 1.57866 0.004 300 0 
809 1 1 -0.0415337 0.0198179 0.00397834 0 0 0 0.0148411 0.0316554 0.00202009 0.0131602 0.0001195 0.00427738 -0.230676 0.93472 -0.614269 0.004 300 0 
773 1 1 -0.0334342 0.0199668 0.00393382 0 0 0 0.0113888 0.00824261 0.00542021 -0.00398689 0.018784 0.018541 -3.022 0.755009 -2.09929 0.004 300 0 
530 1 1 -0.0162368 0.0197945 0.0039359 0 0 0 0.0353775 0.00471064 5.33291e-05 -0.00168021 0.00833088 0.00521614 0.896862 0.681256 1.59467 0.004 300 0 
227 1 1 -0.00776525 0.0195968 0.00396895 0 0 0 -0.00236612 -0.00132138 -0.00561152 0.0132962 -0.0261174 -0.0106912 -1.46812 -0.846526 3.47595 0.004 300 0 
493 1 1 0.0099422 0.0175287 0.00394539 0 0 0 0.00813282 5.68065e-05 -0.0133753 0.0296338 0.00505001 -0.0349698 -1.25616 -0.347451 0.84351 0.004 300 0 
34 1 1 0.0177673 0.0188361 0.00393612 0 0 0 0.00815934 -0.0149984 -0.0032555 0.0131765 -0.0146403 -0.0111385 0.224552 -0.724303 -0.429485 0.004 300 0 
206 1 1 0.0256639 0.019306 0.00395904 0 0 0 0.0037391 -0.023552 0.00672026 -0.00171573 -0.00155223 0.00575063 -1.21212 -0.356559 -5.84999 0.004 300 0 
718 1 1 0.0414209 0.020201 0.00391735 0 0 0 -0.00119107 0.0059887 -0.000111118 -0.00268247 -0.000600091 -0.00102667 -1.3148 0.700971 0.0363819 0.004 300 0 
792 1 1 0.0034397 0.0220474 0.00391202 0 0 0 -0.00960754 -0.00369972 -0.0211449 0.0222661 -0.017577 0.0660096 2.19779 0.738071 -2.66425 0.004 300 0 
104 1 1 0.0335321 0.019988 0.00391831 0 0 0 -0.00262839 -0.020124 0.00641978 -0.00500784 0.0176458 0.00741817 0.815417 0.446679 6.78819 0.004 300 0 
101 1 1 -0.0374037 0.0268498 0.0039401 0 0 0 -5.24732e-05 -0.00142063 -0.00258318 -0.0106741 0.000148849 -0.00915876 0.209449 0.349653 2.23604 0.004 300 0 
246 1 1 -0.0291583 0.0270911 0.00396153 0 0 0 0.0166882 -0.0135078 -0.0252034 0.0108984 0.0237686 0.0113723 4.27848 -0.253964 0.74245 0.004 300 0 
331 1 1 -0.0211825 0.0260327 0.00386856 0 0 0 0.00614454 -0.00646221 0.00377975 -0.0104362 0.00316348 0.0103064 2.73404 2.14375 2.4325 0.004 300 0 
846 1 1 -0.0133452 0.0271733 0.00394499 0 0 0 -0.00634757 0.0203369 -0.00528246 -0.0172481 0.0170507 -0.000842719 -0.458419 -0.453643 4.38778 0.004 300 0 
348 1 1 -0.00327269 0.0261888 0.00391118 0 0 0 -0.00335412 0.00907696 -0.0117207 -0.0107958 0.00726475 0.0151012 -0.455731 -0.128754 0.0700761 0.004 300 0 
786 1 1 0.00848824 0.0281835 0.00387928 0 0 0 -0.00226959 -0.00887797 -0.00176223 0.0052674 -0.00593519 0.00680231 1.91724 -0.812419 1.76651 0.004 300 0 
316 1 1 0.0163727 0.0271914 0.00393712 0 0 0 0.00557267 0.00372794 -0.00595374 0.00712962 0.0184169 -0.0181465 0.905193 -0.159064 0.127633 0.004 300 0 
495 1 1 0.0290431 0.026535 0.00394134 0 0 0 -0.0107464 -0.021517 0.00968462 -1.04778e-05 0.00593801 0.0047847 0.474113 -1.53251 -5.03641 0.004 300 0 
863 1 1 0.0369424 0.0274693 0.00393999 0 0 0 -0.0105128 0.0120592 -1.92084e-05 -0.000301158 -0.00171722 -0.0155232 -1.68946 -1.28677 1.68257 0.004 300 0 
511 1 1 -0.00773768 0.0327404 0.00389169 0 0 0 -0.000992559 0.0127223 -0.00577471 -0.00323326 0.00525153 -0.00462183 -0.839373 -0.492724 -6.26754 0.004 300 0 
722 1 1 0.00174831 0.0323549 0.00397755 0 0 0 0.00301201 -0.00129395 -0.00589549 0.00559999 0.00499884 0.00666961 -0.582424 0.526687 -3.12042 0.004 300 0 
2 1 1 0.0229828 0.031663 0.00396393 0 0 0 0.0037956 -0.0018301 0.00913095 -0.00147889 0.00367283 0.00265834 0.0777623 0.175499 -1.37915 0.004 300 0 
254 1 1 0.030468 0.0344701 0.00400216 0 0 0 0.0277107 -0.0318727 0.0110843 -0.000705388 -0.000975371 -0.0210542 -1.84824 -2.84865 -1.23969 0.004 300 0 
257 1 1 -0.0292135 0.0355462 0.00386572 0 0 0 -0.0186996 -0.016821 -0.00567709 -0.00455546 -0.00871518 0.0220288 4.3046 -4.64635 0.57502 0.004 300 0 
582 1 1 -0.0152683 0.0356073 0.00391626 0 0 0 -0.00202617 0.0152189 0.00655985 0.00365178 -0.0056835 0.0259515 -3.93316 -0.580421 -2.5621 0.004 300 0 
255 1 1 -0.00270441 0.0389106 0.00396263 0 0 0 0.00885822 0.00156366 -0.00807598 0.00736522 0.00351306 -0.0160791 -0.375393 0.815979 1.86408 0.004 300 0 
887 1 1 0.00817116 0.0373162 0.0039122 0 0 0 0.000834269 -0.000746643 0.00249974 -0.000883398 0.00539541 0.0200956 0.296005 0.625105 -1.33991 0.004 300 0 
719 1 1 0.0158173 0.0351227 0.00398289 0 0 0 0.000958652 -0.00150046 -0.000479731 -0.00407528 0.00585692 -0.000563659 -1.24283 -1.55232 1.45861 0.004 300 0 
21 1 1 0.0234497 0.0396117 0.00388567 0 0 0 -0.00483858 -0.000775707 0.00491336 0.000579837 0.00829413 -0.00394443 0.366863 -1.55695 0.0916618 0.004 300 0 
325 1 1 -0.0221375 0.0403658 0.00396022 0 0 0 -0.00302658 0.00296495 -0.00430489 -0.040591 -0.0180552 -0.00516764 1.26599 -1.05881 0.979532 0.004 300 0 
595 1 1 -0.0148655 0.0435683 0.0040735 0 0 0 0.0129886 0.0111729 -0.0107125 -0.000609685 -0.0238966 -0.0198767 -0.319917 4.97717 -0.537075 0.004 300 0 
568 1 1 0.0163165 0.0430557 0.00392923 0 0 0 -0.00332945 -0.00138328 -0.00231805 0.01258 -0.00501473 -0.00447698 0.489767 -1.19772 -0.183951 0.004 300 0 
387 1 1 -0.00716089 0.0454992 0.00391842 0 0 0 -0.000811377 0.000628125 -0.0172272 0.0108633 0.0085545 0.00691642 -0.365303 -1.87281 0.194662 0.004 300 0 
852 1 1 0.000783177 0.0460414 0.00398229 0 0 0 -0.00192052 0.00213312 -0.00259222 -0.00278467 0.00616244 -0.00773007 0.519956 -1.64658 0.501895 0.004 300 0 
157 1 1 0.00868463 0.0452436 0.00389276 0 0 0 -0.00208385 0.00198556 -0.00138515 0.0180187 -0.000191298 -0.00630454 -0.625266 0.345079 -0.628156 0.004 300 0 
400 1 1 -0.0245017 -0.0389702 0.00971196 0 0 0 -0.0117523 0.00539887 0.0110401 -0.00374664 0.0131082 0.0236784 -0.0198829 -2.30315 -0.436422 0.004 300 0 
606 1 1 -0.000591564 -0.0385015 0.0085278 0 0 0 0.0132055 -0.00754364 -0.0198372 0.0108491 0.000529039 -0.00687366 0.306114 2.36721 0.937225 0.004 300 0 
410 1 1 0.0129432 -0.036859 0.00499586 0 0 0 0.0057092 0.00286324 -0.0198316 0.00791373 -0.00705345 -0.0187307 -0.403291 2.04814 4.11702 0.004 300 0 
724 1 1 -0.0337232 -0.031351 0.0100189 0 0 0 0.00126013 -0.00493367 -0.000599713 -0.00491098 -0.00325841 0.00123894 -2.16441 -3.61431 -0.238755 0.004 300 0 
183 1 1 0.025459 -0.0311322 0.00788012 0 0 0 -0.00997741 0.0281581 -0.0784327 -0.0250388 0.0110322 0.0148996 -2.33571 3.76219 -1.76487 0.004 300 0 
544 1 1 -0.0140405 -0.0251902 0.00872863 0 0 0 -0.0149939 -0.0349291 -0.00620939 0.0148348 -0.00424823 -0.00462079 1.33013 1.85341 -3.32043 0.004 300 0 
29 1 1 -0.00455814 -0.0257497 0.00937377 0 0 0 -0.00618061 -0.0412748 -0.0338763 0.0227097 -0.00567937 -0.0177142 3.05203 -5.55124 3.20836 0.004 300 0 
248 1 1 0.00308142 -0.0275639 0.00783641 0 0 0 0.00231521 -0.0017908 -0.020633 0.00808091 -0.0123231 -0.0139707 -0.0835773 -0.769842 0.268752 0.004 300 0 
814 1 1 0.0186299 -0.0264109 0.0101299 0 0 0 0.0249733 -0.00817511 0.0150359 0.00423737 0.00316435 -0.0148414 2.12212 1.79748 -0.0775041 0.004 300 0 
79 1 1 0.0357555 -0.0290024 0.00952238 0 0 0 0.0111804 0.00943768 -0.0042271 -0.00800966 0.0143489 0.00191884 -2.85969 -1.371 1.27884 0.004 300 0 
291 1 1 -0.00444867 -0.0167729 0.00915988 0 0 0 0.00820864 0.00274559 -0.0170409 0.00180733 0.0109036 0.00645423 5.90271 0.623618 -0.343837 0.004 300 0 
891 1 1 0.00380434 -0.0156218 0.00684231 0 0 0 0.0102819 -0.00190187 -0.0164003 -0.00298506 -0.00717566 0.00701793 -2.0374 -5.44837 3.95474 0.004 300 0 
870 1 1 0.0142495 -0.0152018 0.008691 0 0 0 -0.00639969 -0.006838 0.0030812 -0.000216771 -0.00618673 0.0124239 1.67953 1.52939 -4.71787 0.004 300 0 
777 1 1 0.0345697 -0.0195936 0.00830778 0 0 0 -0.0159034 -0.020441 -0.0289492 -0.00272428 0.0222596 0.0171646 3.99871 6.99205 4.90911 0.004 300 0 
837 1 1 -0.0295702 -0.0147223 0.00792114 0 0 0 -0.00300655 -0.00780994 -0.0186339 0.00797844 -0.00499829 -0.00451691 -1.0181 -0.616292 0.576175 0.004 300 0 
445 1 1 -0.0181659 -0.0140085 0.0098896 0 0 0 0.0132313 -0.0317716 -0.0137503 0.002014 0.0118559 -0.00470927 -2.31667 2.03176 -2.21608 0.004 300 0 
615 1 1 -0.0351126 -0.00118029 0.00957103 0 0 0 -0.0247064 -0.00578633 0.0226698 0.0461798 0.0321292 -0.0370304 -3.25265 0.135849 -9.78423 0.004 300 0 
16 1 1 -0.0209069 0.00164132 0.00867451 0 0 0 -0.0180081 -0.010138 -0.0183596 -0.0203031 -0.00322045 0.0163498 -1.20724 0.822187 1.46002 0.004 300 0 
704 1 1 -0.0103048 0.00420044 0.00702331 0 0 0 -0.0302404 0.0236402 0.00576084 -0.0153855 0.00167023 0.0537782 -1.95339 2.98502 -0.239238 0.004 300 0 
303 1 1 0.0459141 0.00342132 0.00962183 0 0 0 0.00785148 0.00140218 -0.00553661 0.00808558 0.00799947 -0.00273226 -1.04761 -0.926032 0.154672 0.004 300 0 
523 1 1 -0.0389466 0.00750579 0.0097815 0 0 0 0.00970137 0.00225996 0.00735957 0.0229257 0.0171987 -0.0496449 0.728557 10.8442 1.55912 0.004 300 0 
454 1 1 0.00126891 0.00719912 0.00938093 0 0 0 -0.019625 0.0149998 -0.00830468 0.00280709 -0.0102787 -0.00332016 -0.711439 7.40057 3.69852 0.004 300 0 
31 1 1 0.0104947 0.00584256 0.00863419 0 0 0 -0.00869001 0.0102622 -0.00481841 0.00657004 -0.00761865 0.0209011 3.14239 4.91096 2.31451 0.004 300 0 
135 1 1 0.0186735 0.00756906 0.00962982 0 0 0 -0.00933907 -0.0224295 0.00799159 -0.00348775 -0.0242925 -0.0222151 -5.82594 5.30198 -1.84472 0.004 300 0 
712 1 1 0.027778 0.00766626 0.00979775 0 0 0 0.0320612 0.00426552 -0.0136007 0.0112845 0.0167813 -0.00555013 -6.33486 -4.1126 -1.40608 0.004 300 0 
651 1 1 -0.0439814 0.0137817 0.00873846 0 0 0 0.0058921 0.0263628 -0.013834 -0.000160538 0.0458826 -0.0281658 9.77555 -5.02048 -2.75874 0.004 300 0 
43 1 1 -0.00588522 0.0133652 0.00955735 0 0 0 0.0236792 0.008737 0.00803598 -0.00493287 0.0126927 -0.0024774 0.090007 5.91911 -4.01554 0.004 300 0 
621 1 1 0.0437249 0.0146837 0.00907831 0 0 0 0.0069632 0.00171026 -0.0127852 0.000163838 -0.00620441 -0.00108859 -1.10132 0.908651 -0.329679 0.004 300 0 
726 1 1 -0.0254289 0.0199174 0.00662957 0 0 0 -0.011988 0.014167 -0.0120711 -0.00707489 -0.0067681 0.010166 -5.95048 -5.30315 -6.20251 0.004 300 0 
320 1 1 -0.00200328 0.0203343 0.00950904 0 0 0 0.01426 0.0163416 0.00419132 0.0206841 0.00579287 -0.00619134 -0.721944 0.072781 -1.82837 0.004 300 0 
7 1 1 0.013208 0.0223374 0.00936628 0 0 0 0.026575 0.0137178 -0.020193 -0.00699767 -0.020619 0.00162592 -0.0837626 0.844046 2.20039 0.004 300 0 
83 1 1 0.0215027 0.0238654 0.0089761 0 0 0 0.003502 -0.00309221 -0.00269402 -0.00744695 0.012031 -0.0145398 3.81771 -2.29441 2.72698 0.004 300 0 
230 1 1 -0.00842118 0.0250124 0.00976343 0 0 0 -0.00377608 0.00730056 -0.0234899 -0.0113596 -0.0121425 0.019584 0.835752 -2.76014 0.418386 0.004 300 0 
747 1 1 -0.0335808 0.0314892 0.00912367 0 0 0 -0.0142831 -0.00056828 0.0019764 -0.00344583 -0.00884005 -0.00123209 -0.427429 2.91828 -1.40378 0.004 300 0 
51 1 1 -0.0220565 0.0331461 0.00727889 0 0 0 -0.0217018 0.000481239 -0.0270841 -0.0252663 -0.00539151 0.00740607 5.11143 -6.82054 -3.219 0.004 300 0 
116 1 1 -0.00948099 0.0391562 0.00811262 0 0 0 0.0168761 0.00958377 -0.00887006 0.000781111 0.00758338 -0.0317358 2.88994 -4.23354 -1.89641 0.004 300 0 
205 1 1 -0.000387497 -0.046055 0.0109429 0 0 0 -0.00393526 0.0019163 -0.00183359 -0.00604878 -0.00167106 -0.0193587 -1.95919 0.628083 -1.49487 0.004 300 0 
836 1 1 0.00751435 -0.0454199 0.0106443 0 0 0 -0.013521 0.00392595 -0.031511 -0.00577752 0.00870246 0.0908218 -1.1389 -13.6868 -0.0107736 0.004 300 0 
486 1 1 -0.0152797 -0.0405103 0.0102811 0 0 0 0.00610331 0.00237456 -0.0127791 -0.00967751 -0.0226117 -0.0235306 1.39335 1.17593 0.523429 0.004 300 0 
311 1 1 -0.00822263 -0.0445882 0.0107306 0 0 0 -0.00730191 0.0178076 -0.0131 0.042482 -0.0041918 -0.00187283 -1.84048 0.447331 -1.04813 0.004 300 0 
447 1 1 0.0177718 -0.042545 0.0117537 0 0 0 -0.00908713 -0.00410265 -0.00256977 -0.0478042 -0.0257225 0.0298226 -0.446456 -5.4824 -1.96329 0.004 300 0 
538 1 1 -0.0292704 -0.0355828 0.0150293 0 0 0 -0.0139968 0.00680266 0.0149323 -0.00664625 0.0101462 0.00557209 -0.344917 1.68677 -0.0633967 0.004 300 0 
279 1 1 0.0110317 -0.0385306 0.0125489 0 0 0 0.00140349 -0.000170691 -0.0723341 -0.0198492 -0.0296379 -0.00596319 2.2933 -5.33704 1.54639 0.004 300 0 
110 1 1 0.024758 -0.0388339 0.0117401 0 0 0 -0.00395691 -0.00674835 -0.000782028 -0.0433088 -0.0308087 0.00436466 -1.99094 1.65224 -0.592777 0.004 300 0 
188 1 1 -0.0176139 -0.0321385 0.0101552 0 0 0 -0.0056264 -0.0383494 0.0171271 -0.00460271 -0.033529 -0.0151427 0.268809 1.08822 4.37237 0.004 300 0 
810 1 1 -0.0100312 -0.0345745 0.0101761 0 0 0 0.00742 -0.00552256 -0.0102815 0.00050748 -0.00408245 -0.0267863 -1.00269 -0.69397 -2.78286 0.004 300 0 
412 1 1 -0.00303765 -0.0325156 0.0132069 0 0 0 0.00894728 -0.0158431 -0.00458024 0.00484182 -0.0118205 -0.0136058 -3.67913 -2.52575 0.995522 0.004 300 0 
545 1 1 0.00466717 -0.0339053 0.0123269 0 0 0 0.0013989 -0.00396485 -0.0177283 0.00299147 -0.0092894 -0.000773527 5.91465 6.64938 0.934502 0.004 300 0 
556 1 1 0.0180356 -0.0346486 0.0111372 0 0 0 0.00265901 -0.000720592 -0.0256615 0.00326718 -0.00101379 -0.0260465 -0.966689 4.35347 7.40824 0.004 300 0 
32 1 1 0.0309389 -0.0341332 0.013056 0 0 0 -0.00277522 -0.0094416 -0.0514337 -0.0147833 0.012657 0.00601903 1.44788 -0.802928 -1.95902 0.004 300 0 
5 1 1 -0.0385606 -0.0251746 0.0113241 0 0 0 0.0028061 -0.00461594 0.000350126 -0.00393387 -0.00498088 -0.00876673 -1.2489 -1.87311 0.431722 0.004 300 0 
415 1 1 -0.0250826 -0.0293808 0.010505 0 0 0 -0.0135225 -0.0289037 -0.0307374 0.00915125 -0.00476803 -0.00484766 1.76629 -2.98694 -1.60279 0.004 300 0 
446 1 1 -0.00982069 -0.0282161 0.0148053 0 0 0 -0.0132868 -0.00528345 -0.030842 -0.0111603 -0.0159345 0.00371597 0.277716 -1.87699 1.39619 0.004 300 0 
100 1 1 0.0116047 -0.0301012 0.0117975 0 0 0 -0.00710717 -0.0155245 -0.0213175 0.00373145 0.0149296 -0.0219215 -0.123884 -2.56746 -2.97913 0.004 300 0 
266 1 1 -0.0290552 -0.0224889 0.0104261 0 0 0 -0.00519381 -0.0213808 -0.00793347 -0.0182279 0.011843 -6.16464e-05 2.66474 -2.16737 -0.350507 0.004 300 0 
487 1 1 -0.0210263 -0.021722 0.0104625 0 0 0 -0.0017297 -0.0117417 -0.0131818 0.0329529 0.00509917 -0.0239077 4.38025 -1.51056 0.796574 0.004 300 0 
655 1 1 0.00148241 -0.0210637 0.0120842 0 0 0 -0.00640439 -0.00239567 -0.0277446 0.0437272 0.00747746 0.00775479 1.07699 -5.35556 -0.091981 0.004 300 0 
243 1 1 0.0111754 -0.0222343 0.0108494 0 0 0 0.018218 -0.0161406 0.000365161 0.0158602 0.0130683 -0.0166793 2.16826 0.404746 2.86216 0.004 300 0 
24 1 1 0.0290878 -0.0250365 0.0114965 0 0 0 0.00983406 -0.01685 -0.0266227 0.020425 0.0026701 -0.0163054 4.31741 -3.00925 -1.62475 0.004 300 0 
528 1 1 0.0398147 -0.0231876 0.0130141 0 0 0 0.012959 0.0210893 -0.0331361 -0.0113473 -0.00519643 -0.00815716 -9.5391 -0.813979 -4.08261 0.004 300 0 
356 1 1 -0.0363406 -0.0175869 0.0107855 0 0 0 0.000898438 -0.00869901 -0.00498946 0.00504144 0.00100759 0.00927743 -0.556752 2.63412 0.66556 0.004 300 0 
112 1 1 -0.0259023 -0.0157865 0.0147721 0 0 0 -0.0104077 0.00122414 -0.0183409 0.0106725 -0.000705046 0.0245497 1.48526 -1.59005 1.05681 0.004 300 0 
739 1 1 -0.0117621 -0.0182623 0.0117588 0 0 0 0.0202354 -0.0367351 -0.0189547 -0.00505257 0.0383144 -0.0231692 0.0420849 1.51246 1.1513 0.004 300 0 
30 1 1 0.00837379 -0.0155001 0.0140092 0 0 0 -0.0617594 -0.0158479 -0.0581502 0.01231 0.0077806 0.0131911 3.1456 -3.5431 0.452591 0.004 300 0 
309 1 1 0.0231626 -0.0198721 0.0105615 0 0 0 0.0150819 -0.00655501 -0.0100189 -0.00290827 0.0015922 -0.00468143 -4.19748 5.89769 1.6782 0.004 300 0 
418 1 1 0.0427575 -0.0159076 0.0116583 0 0 0 0.0386045 0.0111475 -0.00056875 0.0150371 -0.0254891 -0.00781821 -5.17688 1.30857 0.68505 0.004 300 0 
673 1 1 -0.04368 -0.0146122 0.010637 0 0 0 0.00461713 0.00648104 0.00568041 0.00800137 -0.019906 -0.0183411 1.60593 0.988799 -1.99634 0.004 300 0 
775 1 1 -0.0108893 -0.0102815 0.0109732 0 0 0 -0.0173014 -0.0172584 0.0123314 -0.000931216 -0.00241535 -0.0197658 2.28869 -1.06277 -0.663938 0.004 300 0 
64 1 1 0.000718596 -0.0134979 0.0144222 0 0 0 -0.0443416 -0.00396523 -0.0290121 -0.0205775 -0.00920608 -0.00864907 4.13132 3.44525 -4.90917 0.004 300 0 
332 1 1 0.0218012 -0.0117136 0.00993918 0 0 0 0.00869544 -0.0134586 -0.00326289 0.00697114 -0.00880627 -0.00276193 -3.40125 3.19118 -2.69433 0.004 300 0 
374 1 1 0.0293031 -0.0142081 0.0108594 0 0 0 0.0168456 -0.00987981 -0.0228188 -0.0109852 0.00279961 0.0165901 -12.0745 5.74776 -9.14886 0.004 300 0 
388 1 1 -0.0352233 -0.00964117 0.0103416 0 0 0 0.0387525 -0.020882 0.0116344 0.00214441 0.0759559 -0.0395075 2.44116 1.2739 -3.95509 0.004 300 0 
437 1 1 -0.0241588 -0.00897299 0.0110107 0 0 0 0.0191355 -0.00966117 -0.00168406 -0.0559742 -0.00844472 -0.0176579 0.306792 2.18414 -2.99445 0.004 300 0 
73 1 1 -0.00319659 -0.00771437 0.0106937 0 0 0 -0.00971686 0.00296571 -0.0111851 -0.0175067 -0.0124063 0.00761401 -2.07597 -6.55203 -0.173659 0.004 300 0 
783 1 1 0.00528199 -0.00861274 0.0101835 0 0 0 -0.0203255 3.52119e-06 -0.0120612 -0.0220576 -0.012381 -0.00164305 3.88056 -1.50069 -0.239382 0.004 300 0 
194 1 1 0.0131123 -0.00731636 0.0102463 0 0 0 -0.0190895 0.0245135 -0.0360512 -0.0138371 0.00167909 -0.0164235 2.57226 -3.45016 1.17729 0.004 300 0 
832 1 1 0.0195487 -0.00567336 0.0146048 0 0 0 -0.0204863 0.000827013 -0.0297941 -0.0226995 -0.0313072 -0.0128178 -2.07576 1.56115 1.24815 0.004 300 0 
706 1 1 0.0270881 -0.00578511 0.0106099 0 0 0 0.0095379 -0.0130535 -0.0287601 -0.0217182 -0.00853141 -0.0289343 -3.18558 2.47208 4.28648 0.004 300 0 
589 1 1 0.0345981 -0.00828366 0.0102618 0 0 0 0.0198695 0.00654841 0.0124822 0.000362664 -0.00313552 -0.00260993 1.07235 1.59916 -2.48493 0.004 300 0 