ITEM: TIMESTEP
37600
ITEM: NUMBER OF ATOMS
891
ITEM: BOX BOUNDS mm mm mm
-0.05 0.05
-0.05 0.05
0 0.15
ITEM: ATOMS id type type x y z ix iy iz vx vy vz fx fy fz omegax omegay omegaz radius f_Temp[0] f_heatFlux[0] 
199 1 1 -0.00444377 -0.0458158 0.00397435 0 0 0 -1.0439e-07 2.22919e-08 9.47401e-08 1.68684e-07 -3.82134e-07 -1.9945e-08 1.34411e-05 -2.38417e-05 2.732e-05 0.004 494.114 2.44424 
873 1 1 -0.0201484 -0.0414789 0.0039016 0 0 0 -1.33072e-08 -1.31976e-08 -3.34192e-08 1.60272e-07 -5.41642e-08 4.20781e-08 1.88452e-06 6.59348e-06 -1.86584e-06 0.004 405.747 3.78297 
485 1 1 -0.0126796 -0.0442534 0.00397264 0 0 0 -7.37024e-08 5.15929e-08 2.02909e-09 1.53935e-07 -1.5838e-07 6.18661e-09 -8.45735e-06 -2.60045e-05 2.01078e-05 0.004 440.925 3.84232 
850 1 1 0.00335642 -0.0441759 0.00394115 0 0 0 -7.23145e-08 1.02929e-07 1.85935e-07 1.58364e-07 -2.74788e-07 -5.00437e-08 -1.21185e-05 -2.60284e-06 -2.56918e-05 0.004 553.278 0.213809 
186 1 1 0.0114401 -0.0445988 0.00392827 0 0 0 -7.08565e-08 6.9277e-08 6.88062e-08 1.74978e-07 -1.63598e-07 -8.93956e-08 -5.68474e-06 -8.36721e-06 4.78555e-06 0.004 639.283 -2.69724 
560 1 1 0.018969 -0.0420006 0.00394676 0 0 0 -7.88871e-08 7.14855e-08 8.04037e-08 2.04772e-07 -1.86622e-07 -1.30331e-07 4.6938e-06 -4.98761e-06 -8.54146e-07 0.004 673.722 -3.36552 
102 1 1 -0.0147501 -0.0357331 0.00386311 0 0 0 -2.9603e-08 2.06521e-08 7.9237e-08 3.11044e-07 -2.01254e-07 -1.20953e-07 1.44906e-05 -1.37254e-05 2.06175e-05 0.004 429.761 3.15596 
88 1 1 -0.00730762 -0.0383837 0.00392727 0 0 0 -4.02235e-08 4.84556e-08 1.24941e-07 2.52058e-07 -2.97032e-07 3.44502e-08 1.44077e-06 -4.96052e-06 -2.12024e-05 0.004 475.986 2.44665 
776 1 1 0.00520385 -0.0354368 0.00395024 0 0 0 -1.14239e-07 1.78748e-07 2.92982e-07 3.28356e-07 -6.83329e-07 -3.61667e-07 -2.07018e-05 2.25195e-05 -1.54229e-05 0.004 597.251 -1.2616 
410 1 1 0.0130236 -0.0368131 0.00392572 0 0 0 -1.61046e-07 1.25262e-07 1.99777e-07 3.63768e-07 -3.86428e-07 -2.52994e-07 6.91448e-06 -1.19887e-05 1.02993e-05 0.004 647.22 -2.68809 
282 1 1 0.025876 -0.0381319 0.00388527 0 0 0 -6.37033e-08 1.15191e-07 6.43126e-08 2.24636e-07 -2.10432e-07 -8.23967e-08 -1.84417e-05 -1.3028e-06 1.19178e-05 0.004 715.354 -3.73435 
682 1 1 -0.0302016 -0.0348779 0.00393465 0 0 0 -3.1605e-08 -5.34369e-08 -6.31779e-08 9.89009e-08 2.06413e-08 6.00708e-08 -9.87812e-06 -6.21962e-06 1.17518e-05 0.004 355.051 3.30546 
251 1 1 -0.0224189 -0.0338476 0.00392332 0 0 0 -2.08168e-08 -3.20203e-08 -7.12982e-09 2.69981e-07 -6.11529e-08 1.30556e-08 2.80119e-06 -9.23668e-06 -9.87609e-06 0.004 389.532 3.51568 
770 1 1 -0.00204754 -0.0321408 0.00393965 0 0 0 -1.62178e-07 1.23658e-07 3.17357e-07 4.4881e-07 -6.30959e-07 -1.57987e-07 1.19313e-06 -5.96341e-05 8.18285e-05 0.004 544.304 0.216836 
883 1 1 0.018166 -0.0307536 0.00390024 0 0 0 -2.68153e-07 1.81386e-07 3.14658e-07 5.24243e-07 -5.49569e-07 -4.02029e-07 -2.46303e-05 -4.7095e-05 -2.36098e-06 0.004 686 -3.28245 
838 1 1 0.0320336 -0.033109 0.00396073 0 0 0 -1.5432e-07 1.56245e-07 1.08887e-07 2.96474e-07 -1.85352e-07 -2.21756e-07 7.46209e-06 -1.37252e-05 8.6953e-06 0.004 742.396 -3.56588 
617 1 1 -0.0372521 -0.0271215 0.00391646 0 0 0 -3.88161e-08 -1.00239e-07 -7.56561e-08 8.96463e-08 5.56312e-08 1.10095e-07 7.78742e-06 3.21599e-06 -3.9076e-06 0.004 329.228 2.67205 
824 1 1 -0.0292998 -0.0270298 0.00392984 0 0 0 -6.19897e-08 -1.68943e-07 -8.01271e-08 2.2823e-07 1.1593e-08 5.27311e-08 2.70741e-05 -9.4636e-06 -8.84276e-06 0.004 344.097 3.05864 
571 1 1 -0.0202615 -0.0262215 0.00393285 0 0 0 3.2629e-08 -8.63012e-08 1.18372e-07 4.52527e-07 -1.70206e-07 -1.88437e-07 2.29263e-05 -1.37334e-05 1.367e-05 0.004 385.669 3.42732 
861 1 1 -0.00959295 -0.0297304 0.00389699 0 0 0 -2.5699e-08 -1.24616e-08 3.3462e-07 5.56123e-07 -3.68227e-07 -2.84151e-07 3.48978e-05 7.67521e-06 -4.49085e-05 0.004 467.564 2.20682 
434 1 1 0.0103455 -0.0293807 0.00393743 0 0 0 -2.78914e-07 1.97743e-07 3.0138e-07 4.73961e-07 -6.26304e-07 -2.82653e-07 -2.22337e-05 -8.18743e-06 6.29694e-06 0.004 638.529 -2.30262 
103 1 1 0.0311547 -0.0252347 0.00394363 0 0 0 -2.75673e-07 2.67731e-07 2.60424e-07 4.15568e-07 -2.52918e-07 -4.03275e-07 -3.58021e-08 2.94158e-06 -1.10863e-05 0.004 750.831 -3.24356 
769 1 1 -0.041344 -0.0202818 0.0039823 0 0 0 -1.59824e-08 -9.08699e-08 -4.35423e-08 7.10557e-08 3.58461e-08 7.07143e-08 2.89946e-07 1.21024e-05 -1.20345e-05 0.004 320.162 2.25413 
94 1 1 -0.0333714 -0.0202163 0.0039437 0 0 0 -7.8127e-08 -1.85337e-07 -2.38628e-08 1.8116e-07 5.73729e-08 7.76511e-08 2.52037e-05 -2.40596e-05 -1.96738e-06 0.004 332.167 2.64114 
40 1 1 -0.025401 -0.0201464 0.00391762 0 0 0 -1.03431e-07 -2.43339e-07 1.0769e-07 3.29915e-07 -7.83686e-08 -5.26396e-08 1.21528e-05 -1.81182e-05 2.16158e-05 0.004 355.087 3.07503 
19 1 1 -0.00865072 -0.0218804 0.00393967 0 0 0 -7.75475e-08 -7.65216e-08 4.96569e-07 6.6517e-07 -4.2397e-07 -3.00241e-07 9.1276e-06 -4.09158e-05 5.99313e-05 0.004 469.386 2.10984 
442 1 1 -0.000436971 -0.02185 0.00393584 0 0 0 -1.38074e-07 -2.76857e-08 6.39659e-07 7.13321e-07 -5.41151e-07 -5.12982e-07 2.17004e-05 6.80529e-06 6.39223e-05 0.004 552.321 0.00165968 
259 1 1 0.00753191 -0.0220001 0.00392512 0 0 0 -2.37339e-07 2.1675e-07 3.63812e-07 5.94432e-07 -6.82895e-07 -3.30542e-07 2.70116e-05 1.05541e-05 -1.46352e-05 0.004 624.627 -1.89537 
512 1 1 0.0153883 -0.0232356 0.00397835 0 0 0 -3.75461e-07 1.39627e-07 1.88605e-07 5.59888e-07 -6.21652e-07 -2.47698e-07 -1.12053e-05 -2.72826e-05 -8.22913e-07 0.004 682.006 -2.98385 
470 1 1 0.0232616 -0.0243589 0.00390816 0 0 0 -4.1078e-07 2.48349e-07 3.64507e-07 5.44912e-07 -4.97511e-07 -5.48446e-07 -5.34774e-05 -5.24056e-05 2.58982e-05 0.004 722.404 -3.45548 
451 1 1 0.0390293 -0.0244875 0.00392048 0 0 0 -1.42811e-07 1.19511e-07 3.95858e-08 2.46611e-07 -4.98931e-08 -4.10539e-08 -2.47914e-05 -3.11572e-06 -2.63877e-05 0.004 769.278 -2.69713 
531 1 1 -0.0164596 -0.0192004 0.00396126 0 0 0 -1.25636e-07 -1.16873e-07 2.06616e-07 5.44878e-07 -2.48361e-07 -1.36582e-07 -8.01172e-06 2.31943e-05 8.01901e-06 0.004 396.913 3.4892 
229 1 1 0.0202059 -0.0169136 0.00386876 0 0 0 -7.783e-07 2.57018e-07 5.51113e-07 7.01467e-07 -5.54342e-07 -7.24966e-07 2.25691e-07 -9.03146e-05 7.58717e-05 0.004 712.603 -3.14839 
734 1 1 0.0280521 -0.017942 0.00394398 0 0 0 -4.16146e-07 4.41121e-07 4.91474e-07 5.25189e-07 -2.43815e-07 -7.67142e-07 -2.46109e-05 7.65759e-06 3.76732e-05 0.004 750.39 -3.03842 
635 1 1 0.0425981 -0.0174495 0.00392192 0 0 0 -6.57219e-09 -8.35796e-09 -8.10203e-08 1.73127e-07 -4.88075e-09 -9.47319e-08 3.90393e-06 7.25203e-06 2.40634e-06 0.004 784.068 -1.90382 
87 1 1 -0.0448224 -0.0104639 0.0039142 0 0 0 -7.44789e-08 -4.74621e-08 -5.60201e-08 1.61596e-07 4.55986e-08 1.46123e-07 9.7823e-06 -9.07568e-06 -8.26644e-06 0.004 310.747 1.50899 
406 1 1 -0.0373951 -0.013391 0.00396016 0 0 0 -7.50686e-08 -1.85139e-07 -7.73754e-08 2.66715e-07 8.01655e-09 1.22344e-07 1.0983e-05 -1.24384e-05 3.51918e-06 0.004 318.727 2.04664 
224 1 1 -0.0230581 -0.0126019 0.00387961 0 0 0 -2.4478e-07 -4.73437e-07 1.9151e-07 4.44566e-07 -2.27501e-07 -1.37495e-07 6.47344e-05 -3.51342e-05 -2.86381e-06 0.004 368.231 2.94219 
751 1 1 -0.0102997 -0.0141545 0.00396945 0 0 0 -3.85194e-07 -1.85634e-07 3.01126e-07 5.72286e-07 -3.68699e-07 -2.17053e-07 2.87443e-06 -0.000110063 2.93303e-05 0.004 447.249 2.41262 
622 1 1 -0.00273389 -0.0117409 0.00388524 0 0 0 -4.81742e-07 -9.38089e-08 8.88484e-07 6.09633e-07 -5.06227e-07 -6.30012e-07 -9.60013e-06 -8.34245e-05 -2.13885e-06 0.004 513.429 0.883702 
128 1 1 0.00951066 -0.010685 0.00388459 0 0 0 -9.42041e-07 3.24313e-07 9.43332e-07 8.11044e-07 -5.48126e-07 -7.60048e-07 -5.57348e-05 -9.27707e-05 1.28232e-05 0.004 648.138 -2.27866 
68 1 1 0.0262808 -0.010211 0.00395439 0 0 0 -7.5783e-07 3.89694e-07 3.43724e-07 6.05468e-07 -3.67934e-07 -6.46015e-07 -4.12577e-05 -8.57837e-05 2.48511e-05 0.004 754.515 -2.89337 
791 1 1 0.0340945 -0.0118532 0.00392801 0 0 0 -4.07394e-07 6.67682e-07 -3.64355e-08 5.38756e-07 -2.49861e-08 -2.60781e-07 -0.0001447 -4.08671e-05 0.000128271 0.004 775.723 -2.34984 
354 1 1 -0.0380748 -0.00550396 0.00392042 0 0 0 -2.79954e-07 -1.99053e-07 -1.25774e-07 2.47314e-07 5.264e-08 1.6505e-07 1.80648e-05 -6.2932e-05 2.63011e-05 0.004 316.676 1.82054 
725 1 1 -0.0304901 -0.00800531 0.0039252 0 0 0 -2.20386e-07 -2.07459e-07 3.40158e-08 3.27408e-07 1.07689e-07 1.41473e-07 6.69969e-06 -3.33973e-05 9.62763e-06 0.004 329.078 2.35815 
353 1 1 -0.0161288 -0.00879809 0.00391144 0 0 0 -3.60506e-07 -5.23611e-07 4.11365e-07 4.38075e-07 -2.28208e-07 -1.94787e-07 0.000174737 -3.59455e-06 3.48184e-05 0.004 407.529 2.77307 
391 1 1 -0.00857661 -0.00639748 0.00391358 0 0 0 -5.21003e-07 -2.69442e-07 6.4907e-07 6.30049e-07 -3.90776e-07 -1.99238e-07 8.84736e-05 -7.05457e-05 3.15359e-05 0.004 464.641 1.97847 
683 1 1 0.0173533 -0.00945628 0.00390987 0 0 0 -9.44717e-07 2.82274e-07 6.91285e-07 7.16932e-07 -4.09127e-07 -6.72226e-07 -5.3715e-05 -7.12378e-05 -1.20822e-05 0.004 703.158 -3.06596 
690 1 1 0.0385537 -0.00520142 0.00390022 0 0 0 -3.73397e-07 5.52868e-07 6.05157e-10 3.40105e-07 8.3064e-08 -2.9897e-07 -0.000131488 -6.77053e-05 -8.62694e-05 0.004 785.563 -1.70107 
10 1 1 0.0449635 -0.00990888 0.00397399 0 0 0 -2.0488e-07 5.71803e-08 1.64916e-07 9.22288e-08 -3.51647e-10 -1.32211e-07 5.14613e-05 -1.04691e-05 2.02435e-05 0.004 789.828 -1.45049 
402 1 1 -0.046017 -0.00264172 0.00392182 0 0 0 -1.48857e-07 -4.77299e-08 -9.12772e-08 1.00153e-07 2.18064e-08 8.41636e-08 -3.10334e-06 -9.94779e-06 5.61522e-06 0.004 310.956 1.45914 
761 1 1 -0.0294744 -0.000168336 0.00392563 0 0 0 -3.3505e-07 -3.03708e-07 -9.56697e-09 2.81629e-07 -2.78873e-08 -5.1753e-08 2.06214e-05 -5.46104e-05 -1.6754e-06 0.004 339.658 2.53393 
293 1 1 -0.0229324 -0.00466873 0.0039595 0 0 0 -4.00717e-07 -5.13269e-07 2.84888e-07 4.12001e-07 -1.81676e-07 -1.40403e-07 5.33484e-05 -0.000118235 -1.26548e-05 0.004 366.77 2.94112 
384 1 1 -0.014698 -0.000892157 0.00398149 0 0 0 -8.51238e-05 -0.000536404 -9.03823e-07 7.91252e-09 1.23631e-08 5.23739e-06 0.134411 -0.0213296 0.145502 0.004 304.576 0 
378 1 1 0.00130609 -0.00490406 0.00392906 0 0 0 -6.92159e-07 -6.54046e-08 6.99789e-07 7.12371e-07 -3.73107e-07 -3.89927e-07 -7.98756e-05 -0.000160363 8.73398e-06 0.004 555.658 -0.144669 
390 1 1 0.0103707 -0.0027653 0.00396887 0 0 0 -8.59206e-07 2.99238e-07 5.6414e-07 7.21415e-07 -3.72182e-07 -3.57279e-07 -6.95497e-05 -0.000119734 -1.01698e-05 0.004 662.406 -2.73682 
411 1 1 0.0223603 -0.00329286 0.00397626 0 0 0 -8.23094e-07 3.16182e-07 5.03843e-07 4.80953e-07 -2.51111e-07 -7.10725e-07 1.37766e-05 -0.000113457 -3.44745e-08 0.004 737.512 -3.19198 
342 1 1 0.0307348 -0.00361665 0.00397529 0 0 0 -5.95227e-07 5.87835e-07 1.76991e-07 2.84304e-07 -2.07578e-07 -1.85758e-07 -4.90075e-05 -5.42482e-05 3.40887e-05 0.004 775.725 -2.25797 
262 1 1 0.0460221 -0.00206505 0.00395833 0 0 0 -2.45597e-07 1.41139e-07 1.67788e-07 1.43049e-07 -2.13662e-08 -1.03148e-07 -3.14741e-05 -9.82497e-06 9.26096e-06 0.004 790.227 -1.40956 
261 1 1 -0.0398214 0.00224601 0.00393476 0 0 0 -2.53006e-07 -1.55336e-07 -9.52976e-08 2.45667e-07 6.04113e-08 1.4121e-07 1.11585e-05 -2.9455e-05 -2.57886e-05 0.004 317.042 1.77026 
666 1 1 -0.00454676 0.000451426 0.00395604 0 0 0 -6.61635e-07 -4.24253e-07 9.09419e-07 6.37574e-07 -2.01246e-07 -1.5751e-07 7.44424e-05 2.77365e-05 9.12201e-06 0.004 502.927 1.18838 
815 1 1 0.00434367 0.0024356 0.00392712 0 0 0 -9.21634e-07 4.05853e-08 5.69316e-07 6.23762e-07 -2.14548e-07 -1.31616e-07 6.6362e-05 -0.000142457 4.65478e-05 0.004 600.264 -1.26123 
306 1 1 0.01637 0.00247667 0.0039581 0 0 0 -9.03088e-07 3.09139e-07 5.37045e-07 4.7933e-07 -3.14332e-07 -5.14241e-07 -0.000113956 -0.000170916 -3.28411e-05 0.004 708.376 -3.36661 
178 1 1 0.0241042 0.00444176 0.00386115 0 0 0 -7.71204e-07 2.99674e-07 6.52494e-07 2.42082e-07 -7.28591e-08 -7.206e-07 -7.6466e-05 -0.000113788 2.04314e-05 0.004 741.137 -3.06831 
862 1 1 0.0320656 0.00423367 0.00393098 0 0 0 -6.10966e-07 6.08342e-07 4.55982e-07 1.64309e-07 -2.12556e-07 -4.78524e-07 -6.18582e-05 -2.53349e-05 -1.65998e-05 0.004 769.995 -2.39102 
661 1 1 0.0398756 0.0029147 0.0039468 0 0 0 -3.376e-07 2.55503e-07 2.7909e-07 1.68804e-07 -1.30897e-07 -2.12645e-07 -2.89552e-06 5.51238e-06 -2.85806e-05 0.004 784.766 -1.73611 
677 1 1 -0.0453782 0.0078854 0.00393641 0 0 0 -1.1501e-07 -7.48371e-08 -5.61652e-08 1.32765e-07 5.4624e-08 7.34316e-08 2.38647e-05 -1.47958e-05 -7.11223e-06 0.004 311.298 1.50549 
12 1 1 -0.0333161 0.0067196 0.00393696 0 0 0 -2.61287e-07 -2.60341e-07 -3.81496e-09 3.99884e-07 -2.10864e-08 1.03835e-07 3.29847e-05 -1.74983e-05 -1.33405e-05 0.004 330.918 2.30042 
420 1 1 -0.0254 0.00664838 0.00392687 0 0 0 -3.9325e-07 -4.48928e-07 1.62318e-07 5.12415e-07 -1.0879e-07 -7.13158e-09 6.16695e-05 -5.75306e-05 -3.56783e-05 0.004 356.923 2.75814 
654 1 1 -0.0175134 0.00720947 0.00387212 0 0 0 -5.43209e-07 -7.04172e-07 4.70914e-07 5.50056e-07 -1.31594e-07 -1.3173e-08 9.52418e-05 -0.000102785 -6.32782e-05 0.004 397.262 2.87483 
145 1 1 -0.00454408 0.00836537 0.00386311 0 0 0 -7.89207e-07 -4.41042e-07 9.18007e-07 4.53776e-07 -8.43264e-08 3.30284e-09 1.51536e-05 -0.000125981 -1.56546e-05 0.004 501.713 1.29428 
624 1 1 0.0451449 0.00890653 0.00390657 0 0 0 -3.34241e-07 1.96389e-07 1.53402e-07 2.08391e-07 -2.39882e-08 -2.25086e-07 -3.37257e-05 -6.55252e-05 4.68299e-05 0.004 788.247 -1.56639 
613 1 1 -0.0372991 0.0135339 0.00384344 0 0 0 -2.40278e-07 -1.88222e-07 -4.50577e-08 3.36283e-07 1.37803e-08 1.87988e-07 1.67894e-05 -5.36577e-05 1.26472e-05 0.004 321.327 2.07547 
265 1 1 -0.0293062 0.0135429 0.00396371 0 0 0 -2.77159e-07 -3.06532e-07 1.38827e-07 4.2349e-07 -8.68192e-08 2.32295e-07 1.70633e-05 -4.31332e-05 -7.356e-06 0.004 342.98 2.7754 
273 1 1 -0.0213694 0.0141274 0.00392939 0 0 0 -3.65253e-07 -4.17645e-07 4.04362e-07 5.05436e-07 -8.36016e-08 1.84964e-07 2.55454e-05 -4.66991e-05 6.64287e-06 0.004 369.662 3.063 
492 1 1 -0.01145 0.0123712 0.00398079 0 0 0 -7.17917e-07 -4.42474e-07 5.63102e-07 3.78308e-07 -1.46803e-07 1.35635e-07 4.42375e-06 -5.52368e-05 8.57973e-05 0.004 445.955 2.62026 
234 1 1 0.00585284 0.010393 0.00392891 0 0 0 -1.04053e-06 -1.76239e-07 8.47603e-07 3.69665e-07 5.37848e-08 -1.49921e-07 -6.75953e-05 -0.000117515 -0.000113048 0.004 595.811 -1.00819 
160 1 1 0.0142843 0.0106356 0.00390958 0 0 0 -1.07825e-06 -1.27937e-07 9.69825e-07 2.28771e-07 1.94274e-07 -3.16615e-07 -1.3973e-06 -0.00017029 0.0001068 0.004 678.93 -2.67767 
484 1 1 0.0220893 0.0120738 0.0039012 0 0 0 -6.90088e-07 1.4422e-07 8.02686e-07 5.53041e-08 1.28054e-07 -3.71346e-07 3.168e-05 3.68763e-07 -4.31314e-05 0.004 727.973 -3.04975 
743 1 1 0.0300184 0.0126216 0.00398127 0 0 0 -4.45818e-07 -7.67661e-08 2.27455e-07 -3.82127e-08 -2.01104e-07 -1.13823e-07 -1.97523e-05 3.58615e-05 -2.59688e-05 0.004 756.193 -2.7757 
514 1 1 0.0379536 0.0130186 0.00386906 0 0 0 -5.37882e-07 1.7775e-07 4.21735e-07 1.63736e-07 -1.69896e-07 -3.73961e-07 9.0305e-06 -0.000109912 0.000118292 0.004 776.714 -2.17027 
530 1 1 -0.0159002 0.0198648 0.00392796 0 0 0 -5.31047e-07 -2.66723e-07 6.69336e-07 3.81768e-07 -8.82792e-08 1.45075e-07 -8.88727e-06 -0.000167033 -3.49723e-06 0.004 398.576 3.09679 
227 1 1 -0.00736503 0.0192084 0.00396595 0 0 0 -7.01341e-07 -2.60781e-07 8.46513e-07 2.71412e-07 -1.62871e-07 1.2542e-07 2.3073e-05 -6.70991e-05 -0.000106942 0.004 481.606 1.94885 
392 1 1 -0.000498633 0.0151513 0.00394446 0 0 0 -8.57246e-07 -2.85287e-07 8.49148e-07 1.97417e-07 9.85653e-08 -3.28747e-08 9.68807e-06 1.89294e-05 8.94063e-05 0.004 537.462 0.470406 
493 1 1 0.00985839 0.0172531 0.00394648 0 0 0 -9.01284e-07 -5.6491e-07 1.03581e-06 7.84944e-08 1.8065e-07 -1.98368e-07 0.000143936 -5.32715e-05 2.49046e-05 0.004 635.437 -1.842 
34 1 1 0.0176357 0.0187852 0.003941 0 0 0 -7.41046e-07 -3.91562e-07 1.13896e-06 -2.26664e-08 5.41366e-07 -2.98194e-07 0.000127586 -5.72954e-05 8.45249e-05 0.004 691.413 -2.74133 
206 1 1 0.0255397 0.0192353 0.00396993 0 0 0 -5.00222e-07 -1.09802e-07 7.06023e-07 -1.66713e-08 1.85936e-07 -2.68683e-07 8.25717e-05 0.000133833 1.93318e-05 0.004 735.831 -3.00512 
104 1 1 0.0334175 0.0199346 0.0038965 0 0 0 -6.71629e-07 3.68488e-08 5.43818e-07 1.77831e-07 -2.46637e-08 -3.13282e-07 1.98135e-05 -0.000142202 2.34101e-05 0.004 761.652 -2.72963 
809 1 1 -0.0412059 0.0204949 0.00395497 0 0 0 -1.11673e-07 -1.21637e-07 -3.72211e-08 1.67486e-07 -1.40247e-09 1.17909e-07 2.17804e-05 -9.72317e-06 -1.75115e-05 0.004 316.334 1.97644 
773 1 1 -0.0331523 0.0204531 0.00393522 0 0 0 -2.4388e-07 -2.62444e-07 7.31008e-08 3.50291e-07 -9.02928e-08 3.10334e-07 2.86398e-05 -4.82992e-05 -9.42591e-06 0.004 334.317 2.78431 
792 1 1 0.00347677 0.0219735 0.00392106 0 0 0 -6.41833e-07 -5.15665e-07 1.00314e-06 1.1968e-07 1.38371e-07 -1.23853e-07 7.19302e-05 -0.000113589 -0.000153992 0.004 580.784 -0.655212 
718 1 1 0.0413199 0.0203659 0.00392989 0 0 0 -3.76948e-07 1.17544e-07 3.784e-07 1.22026e-07 -1.06056e-08 -2.27508e-07 -3.93983e-05 1.17477e-05 -2.4424e-05 0.004 775.977 -2.32795 
101 1 1 -0.0371146 0.0272995 0.00390402 0 0 0 -5.59156e-08 -1.55484e-07 7.90364e-08 2.24953e-07 -8.36389e-08 1.70874e-07 2.30346e-05 -1.6959e-05 -2.63791e-05 0.004 327.38 2.59134 
246 1 1 -0.0290567 0.0272807 0.00398271 0 0 0 -4.48303e-07 -2.19372e-07 1.78271e-07 9.52988e-08 -8.21828e-08 3.00991e-07 -1.08086e-05 -8.85997e-05 4.39764e-05 0.004 340.918 3.22074 
331 1 1 -0.0212281 0.0257798 0.00390018 0 0 0 -3.67507e-07 -2.68686e-07 4.61626e-07 3.14245e-07 -9.23985e-08 4.81295e-07 7.05111e-05 -4.15222e-06 -3.58743e-06 0.004 371.746 3.28004 
846 1 1 -0.0134708 0.0274168 0.0039748 0 0 0 -5.15399e-07 -2.46575e-07 5.19e-07 -5.61497e-08 2.23851e-07 2.07915e-07 -5.31706e-05 -4.67958e-05 -3.04203e-07 0.004 418.566 2.81374 
348 1 1 -0.00329916 0.0260612 0.00393374 0 0 0 -3.89695e-07 -3.0597e-07 8.46743e-07 -8.00004e-09 5.93123e-08 4.32357e-08 -1.20281e-05 5.22539e-05 5.99609e-05 0.004 521.328 0.861116 
786 1 1 0.00840353 0.0281551 0.00389685 0 0 0 -3.60342e-07 -5.63287e-07 1.12492e-06 6.68718e-08 2.03189e-07 3.53907e-09 8.1368e-05 -2.06516e-05 4.88967e-05 0.004 620.26 -1.70617 
316 1 1 0.0162833 0.0272928 0.0039063 0 0 0 -3.27659e-07 -4.08973e-07 6.8701e-07 -1.91042e-07 4.34122e-07 4.33902e-08 2.28711e-05 3.72925e-05 4.02605e-05 0.004 683.911 -3.00055 
495 1 1 0.0288861 0.0264618 0.00396716 0 0 0 -5.50728e-07 1.3553e-09 5.74215e-07 1.23709e-07 -6.46564e-08 -1.13368e-07 4.68127e-05 1.04905e-05 8.91062e-06 0.004 748.262 -3.16813 
863 1 1 0.0367263 0.0277633 0.00392936 0 0 0 -3.95796e-07 3.77779e-08 2.81388e-07 1.51841e-07 -3.5087e-09 -1.36037e-07 -2.78936e-05 -4.87988e-05 -3.06259e-05 0.004 768.042 -2.83185 
511 1 1 -0.00761835 0.0327132 0.00388553 0 0 0 -3.87168e-07 -3.81389e-07 6.24436e-07 -8.73302e-08 1.24213e-07 2.0431e-07 2.54392e-05 -0.000108992 -3.45625e-05 0.004 489.921 1.55066 
722 1 1 0.00164033 0.0322874 0.00396635 0 0 0 -5.00651e-07 -4.65715e-07 8.69094e-07 -8.47376e-09 5.08669e-08 1.54573e-07 0.0001074 -0.000152598 -5.84803e-05 0.004 565.099 -0.34007 
2 1 1 0.0229311 0.031696 0.00396244 0 0 0 -6.38043e-07 -5.15062e-08 7.05142e-07 6.74762e-08 -1.26544e-08 -9.31523e-08 -1.90055e-05 -9.10664e-05 1.90979e-05 0.004 716.212 -3.54983 
254 1 1 0.0305181 0.0343628 0.0039815 0 0 0 0.000481608 -0.000706171 9.11211e-14 4.69208e-18 -1.12107e-17 -9.37167e-14 0.176952 0.120681 -0.0211551 0.004 798.547 0 
257 1 1 -0.0296322 0.0352231 0.00395613 0 0 0 -2.5584e-07 -2.75736e-07 2.67097e-07 1.97727e-08 -1.72454e-07 2.44566e-07 5.33606e-05 -9.14715e-05 -0.000119172 0.004 344.238 3.50179 
582 1 1 -0.0157655 0.0356205 0.00393205 0 0 0 -7.10504e-07 -7.83978e-07 5.85301e-07 1.80168e-07 1.37787e-06 5.27465e-07 0.000145053 -0.000189854 -0.000155837 0.004 390.457 3.92137 
255 1 1 -0.00267125 0.038932 0.00391148 0 0 0 -4.12424e-07 -3.39549e-07 9.14251e-07 1.57165e-07 1.70193e-07 1.29656e-07 5.26623e-05 -9.73566e-05 1.69041e-05 0.004 523.552 0.75882 
887 1 1 0.00812084 0.0373183 0.00392889 0 0 0 -6.03827e-07 -4.91007e-07 6.91732e-07 9.94437e-08 3.4853e-08 -4.31316e-08 4.91973e-05 -6.69018e-05 6.94154e-05 0.004 636.333 -2.53632 
719 1 1 0.0157853 0.0351951 0.00398363 0 0 0 -3.76324e-07 -2.08271e-07 4.48322e-07 1.69311e-07 1.61616e-07 -1.7972e-07 -3.55682e-05 2.60495e-05 -3.10382e-05 0.004 684.311 -3.38901 
21 1 1 0.0234243 0.0396338 0.00391497 0 0 0 -2.64611e-07 -4.69611e-08 2.93206e-07 1.60527e-07 -2.1068e-08 -1.31274e-07 -2.63585e-05 -3.78016e-05 -6.26487e-05 0.004 718.375 -3.781 
325 1 1 -0.0222388 0.0402984 0.00393951 0 0 0 -2.28941e-07 -2.89808e-07 2.41117e-07 -1.50608e-07 6.33865e-08 7.92538e-08 5.51122e-05 -5.42312e-05 -9.3194e-05 0.004 378.83 4.00956 
595 1 1 -0.014931 0.0435393 0.00398254 0 0 0 -1.09561e-07 -2.56319e-07 3.87546e-07 -4.18649e-07 4.07242e-07 -3.15587e-07 -9.1177e-05 -4.01721e-06 1.57546e-05 0.004 413.689 3.68179 
568 1 1 0.0162912 0.0430934 0.00392629 0 0 0 -2.46462e-07 -1.72237e-07 2.85389e-07 1.00208e-07 3.86393e-08 -9.28002e-08 2.42337e-05 4.78243e-06 4.41884e-05 0.004 681.063 -3.35642 
387 1 1 -0.00719691 0.045487 0.00389932 0 0 0 -2.61998e-07 -1.99959e-07 4.91059e-07 -1.20369e-07 4.80267e-09 -1.31633e-09 -3.66745e-05 -6.19902e-05 -3.20814e-05 0.004 493.196 1.65896 
852 1 1 0.000758888 0.0460615 0.00397617 0 0 0 -2.32972e-07 -6.89412e-08 4.31756e-07 -4.70212e-08 6.45841e-08 -3.60835e-09 -0.000108484 4.2394e-05 -2.09591e-05 0.004 554.511 -0.130686 
157 1 1 0.00865317 0.0452492 0.00389824 0 0 0 -4.15792e-07 -3.29783e-07 4.50885e-07 7.57725e-08 -1.13855e-09 -1.0799e-08 6.86947e-06 -5.24242e-05 -6.33096e-05 0.004 627.143 -2.19911 
400 1 1 -0.024752 -0.0387964 0.00974418 0 0 0 -7.64367e-08 -9.10166e-08 -3.84909e-08 1.94483e-07 -3.30834e-08 -4.53382e-08 1.14525e-05 -1.69588e-05 1.99838e-05 0.004 374.404 3.87186 
606 1 1 -0.00065394 -0.0387266 0.00813892 0 0 0 -1.42572e-07 1.12179e-07 3.62541e-07 5.72576e-07 -5.01936e-07 -9.70435e-08 2.29239e-05 -5.62787e-05 3.10259e-05 0.004 548.944 0.218835 
724 1 1 -0.0339144 -0.0311598 0.00984801 0 0 0 -1.26644e-07 -2.11838e-07 -1.24461e-07 1.0722e-07 4.22866e-08 9.48921e-08 2.71891e-05 -1.43043e-05 -1.44122e-05 0.004 337.797 2.96883 
183 1 1 0.0251947 -0.0311656 0.00751475 0 0 0 -3.20184e-07 1.51614e-07 3.25101e-07 5.46043e-07 -3.86469e-07 -4.98516e-07 6.16579e-05 4.15362e-06 3.24869e-05 0.004 725.05 -3.56639 
544 1 1 -0.0140218 -0.0253028 0.00874964 0 0 0 -1.60447e-07 -1.58447e-07 6.96974e-07 1.04297e-06 -5.48257e-07 -5.1825e-07 5.19846e-05 -8.76051e-05 8.00224e-06 0.004 424.657 2.88225 
29 1 1 -0.00450629 -0.0263793 0.00900728 0 0 0 -2.09896e-07 2.42703e-08 1.03241e-06 1.28884e-06 -7.4236e-07 -8.42261e-07 -6.56956e-05 -0.000107147 4.46586e-06 0.004 500.725 1.38711 
248 1 1 0.00349901 -0.0278426 0.00763308 0 0 0 -2.9767e-07 1.28641e-07 1.15382e-06 9.8015e-07 -9.15128e-07 -5.91602e-07 0.00023029 7.38658e-05 -3.67464e-05 0.004 584.98 -0.956745 
79 1 1 0.035837 -0.0289489 0.00959647 0 0 0 -2.65447e-07 2.57644e-07 1.27426e-07 3.201e-07 -3.35848e-07 -2.73514e-07 -2.199e-05 3.05828e-05 -2.18263e-05 0.004 758.817 -3.0919 
291 1 1 -0.00458872 -0.0173975 0.00909524 0 0 0 -5.48222e-07 -1.94699e-07 1.21414e-06 1.23852e-06 -8.58605e-07 -8.16999e-07 5.15694e-05 8.64036e-06 -1.01257e-05 0.004 510.059 0.96719 
891 1 1 0.00373489 -0.015528 0.00632509 0 0 0 -5.96346e-07 5.53264e-08 1.23255e-06 9.64091e-07 -7.19731e-07 -8.85335e-07 5.11847e-05 4.79825e-05 0.000114688 0.004 584.375 -0.864805 
870 1 1 0.0138323 -0.0156364 0.00831017 0 0 0 -1.40321e-06 3.23488e-07 1.392e-06 1.39959e-06 -1.01774e-06 -1.39507e-06 1.09759e-05 7.15593e-05 -7.14236e-05 0.004 670.254 -2.73269 
777 1 1 0.034969 -0.018778 0.00771 0 0 0 -7.41077e-08 6.99675e-07 2.00971e-07 2.52966e-07 -2.48324e-07 -2.50462e-07 -3.24824e-07 8.32846e-05 -6.18752e-05 0.004 770.605 -2.62411 
837 1 1 -0.029449 -0.0146727 0.00803326 0 0 0 -2.55627e-07 -3.54451e-07 1.20095e-07 5.03272e-07 -3.34279e-08 1.54687e-07 -1.71407e-06 -1.01633e-05 -1.71756e-05 0.004 339.864 2.63646 
445 1 1 -0.0181359 -0.0138493 0.00995276 0 0 0 -8.74486e-07 -9.05545e-07 1.09387e-06 1.11861e-06 -5.94151e-07 -7.64625e-07 4.66706e-06 -0.000181113 -5.63995e-06 0.004 394.16 2.92558 
783 1 1 0.00485898 -0.00860657 0.00993769 0 0 0 -1.68051e-06 4.63609e-08 1.85722e-06 1.36192e-06 -9.71037e-07 -1.33217e-06 2.65418e-05 -8.01578e-05 7.40531e-05 0.004 597.198 -1.15782 
615 1 1 -0.0350999 -0.000758713 0.00955182 0 0 0 -6.15907e-07 -5.16843e-07 -1.23832e-07 4.88012e-07 1.73601e-08 1.11896e-07 4.6474e-05 -8.89307e-06 -1.0265e-05 0.004 323.199 2.00206 
476 1 1 -0.0459522 0.00262139 0.00988978 0 0 0 -2.01446e-07 -9.98078e-08 -1.38735e-07 1.64634e-07 3.20518e-08 1.2885e-07 -5.62757e-06 2.23547e-06 9.82029e-07 0.004 309.288 1.34604 
16 1 1 -0.0210456 0.00169438 0.00830926 0 0 0 -8.26488e-07 -9.78225e-07 5.20062e-07 6.89041e-07 -3.83337e-07 -2.99135e-07 1.8337e-05 -2.94715e-05 1.48072e-05 0.004 375.107 2.86351 
303 1 1 0.0459492 0.00350463 0.00962657 0 0 0 -3.67334e-07 3.77929e-07 2.52166e-07 3.22909e-07 -1.52699e-08 -3.26749e-07 8.0629e-06 6.5825e-05 -6.80644e-05 0.004 789.164 -1.482 
523 1 1 -0.0389797 0.0080308 0.00932861 0 0 0 -4.29089e-07 -3.53503e-07 -1.06706e-07 5.62487e-07 4.78435e-08 2.32783e-07 3.17174e-05 -4.38054e-05 -1.53493e-05 0.004 317.589 1.82098 
704 1 1 -0.010798 0.00519222 0.0074386 0 0 0 -1.03691e-06 -9.21519e-07 1.47283e-06 7.94922e-07 -3.40235e-07 -2.12145e-07 -0.000122665 -9.54263e-05 9.40043e-05 0.004 444.967 2.64234 
454 1 1 0.0010118 0.00715931 0.00933957 0 0 0 -1.73476e-06 -7.52457e-07 1.64373e-06 8.22031e-07 -1.21701e-07 -3.06606e-07 0.000201866 -7.04063e-06 0.000158188 0.004 554.29 -0.0757944 
31 1 1 0.0102164 0.0054759 0.00832591 0 0 0 -1.94408e-06 -1.36678e-07 1.74278e-06 7.98411e-07 -8.23971e-08 -7.79329e-07 -3.33527e-05 -9.74148e-05 -2.38324e-05 0.004 640.334 -2.05977 
135 1 1 0.0188886 0.00749169 0.00960784 0 0 0 -1.81594e-06 1.30654e-07 1.32273e-06 8.08539e-07 -1.51595e-07 -8.61313e-07 0.000127968 -0.000210996 6.07868e-06 0.004 720.112 -3.32476 
712 1 1 0.0281139 0.00743266 0.00998856 0 0 0 -1.62879e-06 1.89659e-07 1.34855e-06 7.44885e-07 4.24456e-07 -1.45844e-06 0.000242531 -7.13766e-05 0.000140001 0.004 754.107 -2.84873 
210 1 1 0.0394934 0.00814606 0.00989881 0 0 0 -9.49751e-07 3.88757e-07 5.78034e-07 7.64431e-07 -8.66861e-08 -7.08864e-07 -1.39431e-05 -0.000147867 2.31591e-05 0.004 783.114 -1.84976 
651 1 1 -0.0437987 0.0143398 0.00823566 0 0 0 -1.91065e-07 -1.70194e-07 -7.13948e-08 2.59423e-07 4.87334e-09 1.8483e-07 -2.41825e-06 1.19316e-05 -1.8309e-05 0.004 314.161 1.73744 
621 1 1 0.0437182 0.0147846 0.00900766 0 0 0 -6.27816e-07 2.27192e-07 4.52926e-07 2.87876e-07 -9.237e-08 -4.25495e-07 4.97974e-06 7.31818e-05 -6.50203e-05 0.004 781.516 -1.9666 
726 1 1 -0.0257657 0.0199972 0.00692824 0 0 0 -4.5239e-07 -4.34353e-07 3.4731e-07 5.23283e-07 -1.7457e-07 5.75725e-07 8.89847e-06 -2.99003e-05 2.21063e-06 0.004 352.816 3.09622 
230 1 1 -0.00847467 0.024595 0.00973775 0 0 0 -9.48172e-07 -9.21871e-07 1.55397e-06 5.45687e-07 3.22955e-08 3.45736e-07 0.000262356 -0.000177366 -0.000100422 0.004 481.183 1.77448 
320 1 1 -0.00171266 0.020405 0.00979386 0 0 0 -1.45479e-06 -1.25663e-06 1.86811e-06 4.2961e-07 2.80096e-07 5.34634e-08 0.000244145 -5.26424e-05 7.05576e-06 0.004 534.952 0.549746 
7 1 1 0.0129211 0.0224303 0.00918518 0 0 0 -1.36086e-06 -7.68174e-07 1.89424e-06 -2.2741e-07 3.74297e-07 -1.85535e-07 -5.82327e-05 -0.000131242 -0.000169171 0.004 663.096 -2.52925 
83 1 1 0.0214164 0.0239651 0.00888426 0 0 0 -1.06659e-06 -2.69188e-07 1.48803e-06 1.09449e-07 4.2653e-07 -3.59491e-07 -0.000137487 -0.000310418 -0.000106795 0.004 723.557 -3.20302 
747 1 1 -0.0337321 0.0313835 0.00974072 0 0 0 -2.92548e-07 -3.63521e-07 3.83715e-07 2.13754e-07 -2.32039e-07 5.49713e-07 -5.84707e-06 -0.000128076 -6.90439e-05 0.004 340.39 3.04277 
51 1 1 -0.0226192 0.0329654 0.0070345 0 0 0 -5.30403e-07 -5.09644e-07 5.68132e-07 3.50002e-07 3.7572e-08 7.07332e-07 -9.21e-05 0.000137053 6.36652e-05 0.004 363.796 3.72556 
116 1 1 -0.00940735 0.0391203 0.00809817 0 0 0 -4.79296e-07 -7.90615e-07 1.044e-06 2.04824e-07 1.16302e-07 3.08106e-07 0.000105099 5.36374e-05 -1.1197e-06 0.004 482.664 1.85917 
205 1 1 -0.000560457 -0.0460776 0.0110171 0 0 0 -1.26396e-07 3.33709e-08 1.34678e-07 3.78082e-07 -1.95614e-07 1.97573e-07 2.89477e-05 -7.01596e-05 1.66081e-05 0.004 550.179 0.25438 
836 1 1 0.00737985 -0.0454688 0.0106611 0 0 0 -8.09929e-08 5.22516e-08 1.75563e-07 4.35818e-07 -2.506e-07 -9.93349e-08 3.21611e-05 1.17041e-05 1.21177e-05 0.004 598.647 -1.38958 
486 1 1 -0.0156916 -0.0402432 0.0103352 0 0 0 -8.93999e-08 -1.29015e-07 -8.92499e-08 4.95524e-07 -5.64064e-08 7.8512e-08 4.42231e-05 -2.16082e-05 1.16055e-05 0.004 418.609 3.60239 
311 1 1 -0.00836811 -0.0439882 0.0106791 0 0 0 -4.09514e-07 -1.22891e-08 1.15442e-07 7.03742e-07 -4.70231e-07 -5.87081e-08 1.63008e-05 -5.63693e-05 -6.06635e-05 0.004 470.522 3.31643 
447 1 1 0.0180551 -0.0423881 0.0118323 0 0 0 -9.62947e-08 1.18111e-07 1.22589e-07 4.80935e-07 -4.43316e-07 -2.58236e-07 1.1816e-05 4.43577e-05 4.77514e-06 0.004 667.189 -3.19543 
538 1 1 -0.0295743 -0.035351 0.0149849 0 0 0 -2.57159e-07 -2.80762e-07 -1.16253e-07 3.24069e-07 -3.47266e-08 -1.08662e-07 -2.00901e-06 -1.52662e-05 1.70564e-05 0.004 352.75 3.37404 
279 1 1 0.011155 -0.0385417 0.0114152 0 0 0 -2.50072e-07 2.05468e-07 4.26718e-07 9.4278e-07 -7.10002e-07 -3.94728e-07 4.66295e-06 1.2124e-05 1.9968e-05 0.004 631.816 -2.2638 
110 1 1 0.0250464 -0.0386627 0.0117241 0 0 0 -1.51291e-07 1.31308e-07 1.33781e-07 4.19616e-07 -3.93515e-07 -2.0867e-07 3.64061e-05 -2.97976e-05 7.49054e-06 0.004 706.395 -3.66147 
188 1 1 -0.0179041 -0.0321007 0.0101564 0 0 0 -2.41781e-07 -1.57543e-07 1.39588e-07 8.82269e-07 -3.32e-07 -2.88508e-07 4.06714e-05 -5.15841e-05 4.35475e-06 0.004 404.492 3.27491 
810 1 1 -0.0102601 -0.034451 0.0102036 0 0 0 -2.34189e-07 3.87016e-09 3.38312e-07 9.78791e-07 -4.93676e-07 -4.33634e-07 1.29845e-05 -6.38745e-05 2.60351e-05 0.004 456.821 2.55953 
412 1 1 -0.00316745 -0.0328806 0.0133527 0 0 0 -4.38648e-07 -8.90488e-09 1.00431e-06 1.49362e-06 -7.31108e-07 -9.14375e-07 8.97519e-05 -4.36921e-05 3.19132e-06 0.004 512.286 1.12371 