ITEM: TIMESTEP
12800
ITEM: NUMBER OF ATOMS
891
ITEM: BOX BOUNDS mm mm mm
-0.05 0.05
-0.05 0.05
0 0.15
ITEM: ATOMS id type type x y z ix iy iz vx vy vz fx fy fz omegax omegay omegaz radius f_Temp[0] f_heatFlux[0] 
199 1 1 -0.00444389 -0.0458159 0.00397453 0 0 0 -2.22833e-06 -0.000227979 -0.000158118 0.000190578 9.65535e-05 -0.000448281 0.0157135 -0.00839462 -0.0546354 0.004 300 0 
873 1 1 -0.02015 -0.0414787 0.0039011 0 0 0 -0.000115348 4.38613e-05 -8.21544e-05 -9.81328e-05 -0.000171914 0.000298179 -0.0377876 -0.0326566 0.0230368 0.004 300 0 
485 1 1 -0.01268 -0.0442531 0.0039739 0 0 0 -2.56143e-05 -2.57843e-05 -0.000171215 -9.65529e-05 1.23352e-05 -9.32904e-05 -0.010221 0.0416644 -0.0226274 0.004 300 0 
850 1 1 0.00335606 -0.0441747 0.00394011 0 0 0 -2.21683e-06 -0.000284874 -0.00028342 0.000245621 -0.000122355 -0.000573538 0.0276371 -0.0035549 0.151821 0.004 300 0 
186 1 1 0.0114405 -0.0445991 0.00392674 0 0 0 0.000100772 9.03907e-06 7.14311e-05 0.000211225 -0.000264488 -0.000184151 0.000618043 0.0327168 -0.00046407 0.004 300 0 
560 1 1 0.0189687 -0.0420004 0.00394655 0 0 0 7.19364e-05 1.41096e-05 -1.53527e-05 0.000185475 -0.000262654 -0.000225156 -0.00818289 0.022159 -0.0139568 0.004 300 0 
102 1 1 -0.0147517 -0.0357318 0.00386268 0 0 0 -0.000157663 -0.000115745 -0.0001776 -0.000160546 -0.000272309 2.67715e-05 0.00235906 0.00893261 -0.0319764 0.004 300 0 
88 1 1 -0.00730823 -0.0383843 0.00392767 0 0 0 -0.000162658 -0.000114687 -7.80341e-05 -1.80303e-05 -0.000105109 -0.000420186 0.0369092 -0.0450643 0.0401977 0.004 300 0 
776 1 1 0.0052035 -0.0354361 0.00394981 0 0 0 -0.000136675 -0.000398518 -0.000295467 0.000130758 -0.000460436 -0.000420269 0.113881 -0.0831803 0.0885258 0.004 300 0 
410 1 1 0.0130236 -0.0368126 0.00392479 0 0 0 -6.34367e-05 -4.26008e-05 4.56674e-05 0.000258415 -0.000287591 -0.000395739 0.0150798 0.000131416 0.0334708 0.004 300 0 
282 1 1 0.0258763 -0.0381313 0.00388511 0 0 0 -3.06341e-06 -0.000111316 2.49124e-06 -3.66384e-05 -0.000174435 0.00011617 0.0299517 -0.000629471 0.0120991 0.004 300 0 
682 1 1 -0.0302004 -0.0348793 0.00393551 0 0 0 -2.41062e-05 -5.60262e-05 -6.73504e-05 -0.000127723 -7.27425e-05 1.48623e-05 0.0128534 0.0326841 -0.00659078 0.004 300 0 
251 1 1 -0.0224183 -0.0338469 0.00392644 0 0 0 -0.000167174 -9.44689e-05 -0.000163041 -0.000197025 -0.000114561 -7.72005e-05 0.0452339 -0.0256639 0.00448986 0.004 300 0 
770 1 1 -0.00204777 -0.0321407 0.00393899 0 0 0 -0.000106179 -0.000406162 -0.000134255 -3.8714e-05 -0.000424562 -0.000354819 0.124051 8.32092e-05 -0.0732401 0.004 300 0 
883 1 1 0.0181661 -0.0307531 0.00389967 0 0 0 -0.000108415 -0.000254998 0.000133823 7.31121e-05 -0.00014706 -0.000148494 0.0913034 0.000522948 -0.0357552 0.004 300 0 
838 1 1 0.0320346 -0.0331084 0.00396114 0 0 0 -9.41741e-05 -8.9702e-05 5.77262e-05 -0.000244407 1.28171e-05 2.29576e-05 0.0286153 -0.0283223 0.0150338 0.004 300 0 
617 1 1 -0.0372515 -0.027123 0.00391659 0 0 0 -2.95461e-05 -2.15643e-05 5.42833e-07 -0.000130537 -0.000328922 -0.000145107 0.00750139 0.00609804 -0.00400133 0.004 300 0 
824 1 1 -0.0292966 -0.0270322 0.00393005 0 0 0 -0.000128076 -8.11349e-05 3.85341e-05 -0.000288312 -0.000221235 -3.22748e-05 -0.000169101 -0.0220866 0.0178515 0.004 300 0 
571 1 1 -0.0202612 -0.026221 0.00393466 0 0 0 -0.000393294 3.77365e-05 -0.000170324 -0.000278693 4.70067e-05 -0.000142851 -0.048729 -0.0292682 0.0514262 0.004 300 0 
861 1 1 -0.00959379 -0.0297297 0.00389784 0 0 0 -0.000301941 -9.97415e-05 -0.000305617 -9.25176e-06 -4.99053e-05 -1.43543e-05 0.0148971 -0.0663902 0.0674116 0.004 300 0 
434 1 1 0.010345 -0.0293799 0.00393654 0 0 0 -0.000246541 -0.000110226 1.65228e-05 0.000116463 -0.000315536 -0.000283481 -0.0434889 -0.0512034 0.000606832 0.004 300 0 
103 1 1 0.0311555 -0.0252344 0.00394291 0 0 0 -0.000211797 -7.75781e-05 0.00011477 -0.000315794 -0.000259254 -6.9658e-05 0.0215549 -0.0476473 0.0302048 0.004 300 0 
769 1 1 -0.041343 -0.0202824 0.00398308 0 0 0 3.32269e-05 2.44868e-05 3.85552e-06 -1.95233e-05 -9.70069e-05 -4.51977e-05 -0.00769481 -0.00445521 -0.00820138 0.004 300 0 
94 1 1 -0.033371 -0.0202201 0.00394137 0 0 0 -2.52698e-05 -2.60057e-05 7.06533e-05 -0.000179036 -0.000350259 -0.000250242 0.0170115 -0.0147332 -0.028524 0.004 300 0 
40 1 1 -0.0253994 -0.0201445 0.00391658 0 0 0 -0.000172115 -0.000226675 -0.000151608 -0.00029049 -0.000174899 -0.000295943 0.0648742 0.0287541 -0.0621333 0.004 300 0 
19 1 1 -0.00865072 -0.0218806 0.00393993 0 0 0 -0.000287804 -9.18652e-08 -0.000212138 0.00016702 0.000231025 0.000241964 0.0262347 -0.0741021 -0.0775887 0.004 300 0 
442 1 1 -0.000436708 -0.0218515 0.00393528 0 0 0 -0.000412041 8.13539e-05 -0.000604395 0.000206361 0.000381398 0.000233776 -0.0314858 -0.0518248 -0.0943089 0.004 300 0 
259 1 1 0.00753182 -0.0219983 0.00392372 0 0 0 -0.000357378 -0.000366176 -0.000218918 6.67855e-05 -0.00020227 -9.30665e-06 0.0936474 -0.104703 0.0126594 0.004 300 0 
512 1 1 0.0153884 -0.023235 0.00397769 0 0 0 -0.000181907 -0.000417358 -5.42623e-05 5.67397e-05 -7.49912e-05 -0.000276672 0.0285944 0.0306559 -0.0655998 0.004 300 0 
470 1 1 0.0232621 -0.0243597 0.00390771 0 0 0 -0.000203415 -0.000308306 -5.57373e-05 -0.000106897 -1.1146e-06 -0.000187119 0.0603763 -0.0338717 0.0309968 0.004 300 0 
451 1 1 0.0390296 -0.0244865 0.00392079 0 0 0 -0.000114715 9.506e-05 0.000101717 -0.000354141 -0.000471065 -0.000155697 -0.0584486 0.0221089 -0.00225831 0.004 300 0 
531 1 1 -0.0164588 -0.0192007 0.00396101 0 0 0 -0.000215475 8.4432e-05 5.68294e-05 -0.00024916 0.000282598 3.77451e-05 -0.0186252 -0.0578867 -0.0122275 0.004 300 0 
229 1 1 0.0202051 -0.0169125 0.00386836 0 0 0 -0.00026636 -0.000372074 -0.000143435 0.000260967 -0.00024618 0.000107272 0.0567955 -0.0523376 0.12883 0.004 300 0 
734 1 1 0.0280529 -0.017943 0.00394355 0 0 0 -0.000272988 5.25186e-06 -7.45494e-05 -0.000229474 -0.000291547 0.000445695 -0.0321791 -0.00499138 0.00218056 0.004 300 0 
635 1 1 0.0425984 -0.017448 0.00392207 0 0 0 6.93102e-05 -6.04771e-05 -0.000198909 -0.000443047 -0.000411166 0.000320967 0.00920244 0.0287831 -0.0611515 0.004 300 0 
87 1 1 -0.0448198 -0.0104705 0.00391395 0 0 0 4.22207e-05 9.53858e-05 0.000150781 -0.00011876 -0.000348954 -2.6005e-05 -0.027991 0.00360606 -0.0218425 0.004 300 0 
406 1 1 -0.0373911 -0.0133916 0.00396105 0 0 0 3.8912e-06 5.83987e-05 -4.26534e-05 0.000194133 -6.13876e-06 -9.25959e-05 -0.02664 0.00664138 0.021328 0.004 300 0 
224 1 1 -0.0230578 -0.0125997 0.00387876 0 0 0 -0.000191014 1.22872e-05 -0.000121434 -0.00022364 -9.63137e-05 -0.000141329 -0.0262939 -0.0563952 0.0871941 0.004 300 0 
751 1 1 -0.0103006 -0.0141547 0.00396893 0 0 0 3.7072e-05 0.000139456 5.25391e-05 9.19372e-05 0.000218764 0.000135079 0.0355291 0.0553117 -0.00799935 0.004 300 0 
622 1 1 -0.00273545 -0.0117416 0.00388486 0 0 0 7.84529e-05 0.000355759 -0.000224621 0.000359953 3.85598e-05 0.000547303 -0.122786 0.0143912 -0.00976288 0.004 300 0 
128 1 1 0.00951241 -0.0106874 0.0038822 0 0 0 -0.000174733 -2.66854e-05 -5.98909e-05 0.000263065 6.85186e-05 0.000469603 0.00348808 0.0086685 0.191038 0.004 300 0 
68 1 1 0.0262846 -0.0102111 0.00395401 0 0 0 -0.000265295 -0.000106835 -0.000161666 -0.000343758 -0.000243613 0.000743721 0.0190534 -0.082704 -0.0213177 0.004 300 0 
791 1 1 0.0340948 -0.0118706 0.00392725 0 0 0 -0.000162244 0.000505748 -0.000132206 -0.000468449 -0.000430573 0.000326635 -0.154279 -0.0457352 -0.164381 0.004 300 0 
354 1 1 -0.0380812 -0.00550423 0.00392076 0 0 0 0.000367083 4.2642e-05 5.25824e-05 0.000127392 -5.41702e-05 -0.000132533 0.0352054 -0.0266596 -0.109727 0.004 300 0 
725 1 1 -0.0304964 -0.00799681 0.00392253 0 0 0 0.00036588 -0.00026602 -4.18741e-05 3.63322e-05 -0.000243675 7.79972e-05 0.0602512 0.120037 0.130146 0.004 300 0 
353 1 1 -0.0161281 -0.00879627 0.00391081 0 0 0 -7.45446e-05 0.000155945 3.45996e-05 -0.000265497 9.86255e-05 -0.000105169 -0.0480315 -0.0289269 -0.015951 0.004 300 0 
391 1 1 -0.00857692 -0.00639803 0.00391344 0 0 0 1.23447e-05 0.000263875 4.83763e-05 -0.000186956 -0.000124696 0.000123851 -0.017993 0.0273264 0.0640687 0.004 300 0 
683 1 1 0.0173553 -0.00945528 0.00390903 0 0 0 -0.000345941 -9.06621e-05 -8.54278e-06 -0.000313851 -0.000218209 0.000628621 0.0395602 -0.100098 -0.162433 0.004 300 0 
690 1 1 0.0385546 -0.00520198 0.00389924 0 0 0 1.76084e-05 -0.000699353 -3.28871e-05 4.01436e-05 0.000659916 0.000934561 0.155844 -0.0164121 -0.17306 0.004 300 0 
10 1 1 0.0449639 -0.00990852 0.00397326 0 0 0 0.000132091 -0.000145727 -0.000120925 -0.000369536 -3.15716e-06 0.000713449 0.00513599 -0.0402148 0.0262146 0.004 300 0 
402 1 1 -0.0460154 -0.00264555 0.00392255 0 0 0 3.22981e-06 9.64334e-05 7.20636e-05 0.000154543 -0.000646932 0.000135088 -0.00779678 -0.00271073 0.0343035 0.004 300 0 
761 1 1 -0.0294708 -0.000164631 0.00392727 0 0 0 -0.00017693 -9.69492e-05 -3.99542e-05 9.73022e-06 -4.15047e-05 -0.00015278 -0.000995288 -0.0188676 0.00116354 0.004 300 0 
293 1 1 -0.0229281 -0.00466513 0.00395995 0 0 0 -0.000210321 2.18188e-05 -0.000134274 -0.000154319 -8.23262e-06 -8.79581e-05 0.00514922 -0.00494639 -0.000806241 0.004 300 0 
384 1 1 -0.0147105 -0.00089963 0.00398149 0 0 0 0.0024636 -0.0027443 3.7875e-06 -7.07553e-11 3.44382e-08 8.02875e-06 0.687648 0.617334 0.86221 0.004 300 0 
378 1 1 0.00130872 -0.00490664 0.00392814 0 0 0 -0.000229748 0.000597971 -4.00885e-05 0.000175776 -0.000673725 0.000896702 0.13058 -0.0647833 0.108025 0.004 300 0 
390 1 1 0.0103716 -0.00276772 0.00396744 0 0 0 -0.000656928 0.000344026 -1.78458e-05 5.96926e-05 0.000187743 0.000144856 0.0332818 0.0793433 -0.0728685 0.004 300 0 
411 1 1 0.0223639 -0.00329331 0.00397583 0 0 0 0.000182757 -0.000232287 3.37859e-05 3.67214e-05 3.23519e-05 0.000524084 0.0323376 0.0831808 -0.00846408 0.004 300 0 
342 1 1 0.030735 -0.00361573 0.00397374 0 0 0 8.45411e-05 -0.000276821 -8.07846e-05 -5.65834e-05 9.28139e-05 0.000531493 0.00121934 0.0557577 -0.071867 0.004 300 0 
262 1 1 0.0460224 -0.00206533 0.00395728 0 0 0 1.05202e-05 -1.22734e-05 0.000216155 0.000180701 0.000410898 0.000924349 0.046256 0.0420136 0.0169069 0.004 300 0 
261 1 1 -0.0398216 0.0022471 0.00393587 0 0 0 1.57183e-05 -4.96523e-05 0.000155639 -5.31161e-05 2.00209e-06 -6.31707e-05 -0.0138829 -0.0227529 0.00756503 0.004 300 0 
666 1 1 -0.00454377 0.000448666 0.00395496 0 0 0 -0.000268808 0.000429638 7.31975e-05 -3.37446e-05 -0.000272878 0.000151945 0.0270652 0.000547951 -0.0365296 0.004 300 0 
815 1 1 0.00434561 0.00243362 0.00392909 0 0 0 -0.000303982 0.000577877 -3.62458e-05 3.8536e-05 -0.000519524 0.000391471 -0.143986 -0.0724456 -0.126901 0.004 300 0 
306 1 1 0.0163694 0.00247589 0.00395805 0 0 0 -0.000171841 -3.65534e-05 -0.000153192 0.000444909 -0.000365875 0.000212358 -0.00370222 -0.0458165 -0.076568 0.004 300 0 
178 1 1 0.0241041 0.00444106 0.00386165 0 0 0 0.000116783 -0.000136988 0.000132693 0.000133534 0.000269384 0.000405909 0.013321 -0.00663208 0.0407176 0.004 300 0 
862 1 1 0.0320651 0.00423423 0.00393121 0 0 0 8.10957e-05 -0.00019487 0.000223213 0.000164254 0.000789613 0.000719062 0.0667597 0.00880462 0.0279272 0.004 300 0 
661 1 1 0.039875 0.00291261 0.00394613 0 0 0 -0.000102247 5.88759e-05 0.00051386 0.000230011 0.000864022 0.000753894 0.00655667 -0.0485649 0.00346476 0.004 300 0 
677 1 1 -0.0453772 0.00788801 0.00393602 0 0 0 9.16905e-06 -0.000112038 0.000107563 0.00018087 5.97581e-05 0.000117565 0.033486 -0.0106358 -0.0110313 0.004 300 0 
12 1 1 -0.0333152 0.00672055 0.0039382 0 0 0 -6.77136e-05 -9.08862e-05 -1.40584e-05 -3.88884e-05 9.72553e-05 -0.000117805 0.0100267 0.00866507 -0.0159826 0.004 300 0 
420 1 1 -0.0253968 0.0066494 0.00392839 0 0 0 -6.4403e-05 -0.000105003 -0.000190964 -7.70177e-05 5.11142e-05 -0.00015785 0.00578075 0.0234286 -0.00599709 0.004 300 0 
654 1 1 -0.017512 0.00721292 0.00387453 0 0 0 -8.07252e-05 6.81471e-05 -0.000139928 -5.5811e-05 -0.000192107 -0.000160855 -0.0119541 -0.0272735 0.0480277 0.004 300 0 
145 1 1 -0.00454281 0.00836232 0.00386173 0 0 0 -7.00922e-05 0.000236391 -0.000134796 0.000384043 -0.000277846 1.36076e-05 -0.0891667 -0.0365878 0.00203297 0.004 300 0 
624 1 1 0.0451458 0.00890547 0.00390514 0 0 0 -0.000229911 1.01788e-05 0.000519551 0.000179463 -5.34906e-05 -0.000215078 0.0427396 0.0185147 0.0556261 0.004 300 0 
613 1 1 -0.0372993 0.0135337 0.00384763 0 0 0 -2.14031e-05 -4.43852e-05 6.77181e-05 0.000234387 0.000334214 7.28541e-05 0.0124868 -0.0203447 0.00314274 0.004 300 0 
265 1 1 -0.0293049 0.0135425 0.00396487 0 0 0 -0.00010163 -0.000127957 4.71527e-06 0.000147774 0.000251284 0.000394016 0.0338298 0.028607 0.0183206 0.004 300 0 
273 1 1 -0.0213691 0.0141279 0.00393113 0 0 0 -0.000153076 -4.56849e-05 -0.000164479 0.000279527 0.000157454 1.19281e-05 0.0109693 -0.0144711 -0.00913427 0.004 300 0 
492 1 1 -0.0114453 0.0123686 0.00397914 0 0 0 -0.000224927 0.000263634 -0.000169816 0.000249053 -0.000283616 -0.000158564 -0.0903843 -0.0431195 0.0325791 0.004 300 0 
234 1 1 0.0058566 0.0103885 0.00392804 0 0 0 -5.34868e-05 0.000182794 -0.000110123 0.000396713 -0.000286483 0.000267553 -0.0736501 -0.0416142 -0.0160514 0.004 300 0 
160 1 1 0.0142834 0.0106371 0.00391251 0 0 0 -1.30485e-05 -5.8557e-05 -6.34891e-05 0.000341893 -5.09883e-05 0.000495529 -0.0246592 -0.0116248 -0.0302631 0.004 300 0 
484 1 1 0.0220889 0.0120728 0.00390171 0 0 0 5.75619e-05 -0.000198864 5.28765e-05 0.000551612 0.000695424 0.000510672 0.0196962 0.048101 -0.0153232 0.004 300 0 
743 1 1 0.0300188 0.0126208 0.00398044 0 0 0 -0.000110336 -0.000100553 0.000289545 0.000797944 -0.000315967 5.53069e-05 -0.00746353 -0.161971 0.0356618 0.004 300 0 
514 1 1 0.0379551 0.0130163 0.00386716 0 0 0 -3.68268e-05 0.00029871 0.00103128 -0.000123799 0.000190788 -0.000197357 -0.0370475 -0.0207307 0.0907772 0.004 300 0 
530 1 1 -0.0158985 0.0198639 0.00392703 0 0 0 -0.000290136 8.03756e-05 -0.00019249 0.000479334 -1.02758e-06 9.53592e-05 -0.0453057 -0.046233 0.0488383 0.004 300 0 
227 1 1 -0.00735913 0.0192038 0.00396478 0 0 0 -0.000158366 0.000150579 -0.000237822 0.000370784 -5.12173e-06 0.00030787 -0.0168119 -0.0786661 -0.0822187 0.004 300 0 
392 1 1 -0.000494233 0.0151424 0.00394167 0 0 0 -1.1542e-05 0.000302669 -0.000337506 0.000519892 -9.08618e-05 0.000289313 0.0540065 0.00107748 0.00833795 0.004 300 0 
493 1 1 0.00985634 0.0172524 0.0039464 0 0 0 0.000372071 -3.68125e-05 -5.1547e-06 2.71056e-05 -0.000430826 -0.000100141 0.0566318 -0.00113336 -0.131186 0.004 300 0 
34 1 1 0.0176341 0.0187844 0.00394124 0 0 0 0.000439011 -0.000336661 0.000217222 0.000352715 -0.000273312 0.000942336 0.0641389 0.0392679 0.0422238 0.004 300 0 
206 1 1 0.0255392 0.0192334 0.00396933 0 0 0 0.000208298 -0.000320856 0.000214429 0.000347255 0.000298796 0.000688621 0.0855977 0.0442642 -0.0238846 0.004 300 0 
104 1 1 0.0334175 0.0199309 0.00389568 0 0 0 3.88355e-05 -1.99201e-05 0.000453519 -0.000216577 0.000813085 0.000710241 -0.0331429 -0.0376607 0.061526 0.004 300 0 
809 1 1 -0.0412085 0.0204909 0.00395468 0 0 0 2.84328e-05 -3.76003e-05 3.43058e-05 4.29782e-05 0.000149377 -2.12225e-05 0.0178813 -0.0117665 -0.0035601 0.004 300 0 
773 1 1 -0.0331517 0.0204525 0.00393772 0 0 0 -3.38891e-05 -0.000107188 0.000160066 0.00024151 0.000357436 0.000316599 -0.00964388 0.0242363 -0.0364576 0.004 300 0 
792 1 1 0.00347289 0.0219711 0.00391941 0 0 0 0.000419953 0.000212132 2.44428e-05 5.0646e-05 7.04737e-05 0.000302652 -0.0200058 0.0599603 0.101696 0.004 300 0 
718 1 1 0.0413207 0.0203631 0.003929 0 0 0 -0.000111467 3.98135e-05 0.000410582 -1.97314e-05 0.000678313 -1.3035e-05 -0.0405024 0.0112395 -0.0260579 0.004 300 0 
101 1 1 -0.0371181 0.0272956 0.00390505 0 0 0 5.08499e-05 1.6292e-05 0.000106949 -2.53723e-05 0.000109494 2.62025e-05 -0.0106928 -0.00591178 0.0112246 0.004 300 0 
246 1 1 -0.0290591 0.0272799 0.00398139 0 0 0 -0.000159251 -0.000124395 -8.57666e-06 0.000538941 0.000193128 0.000145114 0.0505586 0.0498465 0.0684932 0.004 300 0 
331 1 1 -0.0212293 0.0257793 0.00390118 0 0 0 -0.00025466 9.28704e-05 -0.000280153 0.000178444 0.000207835 -0.000221663 -0.031999 -0.0789244 -0.0222756 0.004 300 0 
846 1 1 -0.0134713 0.0274151 0.00397526 0 0 0 -0.000236903 0.000169462 -0.000399326 9.46393e-05 6.50611e-05 0.000283733 -0.0353555 -0.092984 -0.0473557 0.004 300 0 
348 1 1 -0.00330139 0.0260631 0.00393288 0 0 0 0.000199462 -3.24095e-05 9.19913e-05 -0.000154433 4.79436e-05 0.00074095 0.0513599 -0.0017067 -0.0131384 0.004 300 0 
786 1 1 0.00840159 0.028151 0.00389364 0 0 0 0.000467299 0.000343554 -1.69429e-06 -0.000113609 0.000201503 0.000412528 0.0173984 -0.000708664 -0.109624 0.004 300 0 
316 1 1 0.0162815 0.0272911 0.00390435 0 0 0 0.000334043 -0.000362838 -2.0505e-05 0.000152652 0.000158126 0.000494112 0.116367 0.0400591 0.0251975 0.004 300 0 
495 1 1 0.028887 0.0264591 0.003966 0 0 0 -6.06918e-05 -0.00034598 0.000199065 -0.000134741 0.000624584 0.000459446 0.0437008 -0.0497623 0.0592422 0.004 300 0 
863 1 1 0.0367268 0.0277629 0.00392902 0 0 0 4.84073e-05 -6.58263e-05 0.000207163 -0.000234225 0.000128375 0.000251877 -0.0252719 0.0139831 -0.010349 0.004 300 0 
511 1 1 -0.00762318 0.032716 0.00388322 0 0 0 -0.000178453 2.27486e-06 0.000500427 -0.000541783 -8.06643e-05 0.000253399 0.109812 -0.0647258 0.0248432 0.004 300 0 
722 1 1 0.00164156 0.0322877 0.00396569 0 0 0 0.00041502 0.000206061 0.000233121 -0.000134001 -0.000169764 0.000230164 0.0177111 0.125293 0.0750775 0.004 300 0 
2 1 1 0.0229319 0.0316927 0.00396085 0 0 0 0.000138138 -0.000381518 0.000257083 3.89243e-05 0.000290547 0.00047537 0.0308293 0.0688611 -0.0444693 0.004 300 0 
254 1 1 0.030532 0.0343628 0.0039815 0 0 0 0.00250229 -0.00318287 -2.83538e-07 -2.77848e-10 -4.55062e-11 3.30708e-07 0.797562 0.627024 -0.202824 0.004 300 0 
257 1 1 -0.0296354 0.0352203 0.00395296 0 0 0 -0.000181964 -7.92824e-06 0.00020801 0.000531297 0.000308093 0.00022555 -0.0121742 -0.0423205 -0.0452526 0.004 300 0 
582 1 1 -0.0157655 0.0356257 0.00392815 0 0 0 -0.000106475 0.000488819 0.000219449 0.00187589 0.000749211 0.000124994 -0.16006 0.0116275 -0.143721 0.004 300 0 
255 1 1 -0.00267261 0.0389302 0.00391171 0 0 0 -0.000200179 8.36599e-05 0.000841404 -0.00062578 -0.000407887 0.000625608 0.0151878 0.0243015 0.0463066 0.004 300 0 
887 1 1 0.00812272 0.0373188 0.00392609 0 0 0 0.000237129 0.000163175 0.000391608 0.000214399 -0.000320173 0.000339725 -0.0423053 0.0967317 0.0592038 0.004 300 0 
719 1 1 0.0157857 0.0351935 0.00398318 0 0 0 7.62825e-05 -0.000140407 0.000290224 1.06351e-05 0.000279881 0.000408228 -0.0183946 -0.0408076 -0.0158442 0.004 300 0 
21 1 1 0.0234271 0.0396313 0.00391439 0 0 0 0.000132697 -0.000274312 0.000146996 -1.27819e-05 0.000313765 -0.000259663 0.0303937 0.0387121 0.0389264 0.004 300 0 
325 1 1 -0.0222385 0.0402997 0.00393691 0 0 0 0.00023108 0.000137222 0.000328319 0.000998503 -2.76886e-05 0.00061735 -0.0672942 0.11617 -0.0196696 0.004 300 0 
595 1 1 -0.0149322 0.0435415 0.00398259 0 0 0 -3.66238e-05 0.000130033 6.37376e-05 -0.000491788 0.000546504 -0.000237558 0.0390156 -0.0758017 0.0613836 0.004 300 0 
568 1 1 0.0162943 0.0430925 0.00392563 0 0 0 -0.000102178 -0.000117592 0.00015196 -0.000242569 -8.15731e-05 -2.20404e-05 -0.00292155 -0.0113169 -0.000522923 0.004 300 0 
387 1 1 -0.00719874 0.0454833 0.00390371 0 0 0 -0.000271121 0.000128601 0.000826523 0.000180263 0.000216809 2.49658e-05 -0.142624 -0.0560628 -0.0133404 0.004 300 0 
852 1 1 0.000759438 0.0460602 0.00397661 0 0 0 -0.000297589 0.000130564 0.00037814 -0.000159982 0.000363512 0.000912698 -0.0938099 0.0634926 -0.0330486 0.004 300 0 
157 1 1 0.00865642 0.0452492 0.00389707 0 0 0 -0.000304246 4.45311e-05 0.000354433 -0.000292797 0.000283399 0.000222271 -0.0412045 -0.0415588 -0.0295492 0.004 300 0 
400 1 1 -0.0247515 -0.0387954 0.009748 0 0 0 -6.17758e-05 8.0792e-05 -6.73548e-05 -0.000527507 -0.000101863 -0.000190115 0.0377633 0.0729498 -0.0165707 0.004 300 0 
606 1 1 -0.000655053 -0.0387253 0.00813895 0 0 0 -4.52915e-05 -0.000536376 -0.000541425 -2.92597e-05 -0.000712369 -0.00102188 -0.0345001 0.147625 -0.121516 0.004 300 0 
724 1 1 -0.0339147 -0.0311599 0.00984661 0 0 0 -1.62491e-05 -5.98777e-05 -5.42495e-06 -0.000301783 4.82155e-05 -2.07855e-05 -0.00839677 -0.0184695 0.0127468 0.004 300 0 
183 1 1 0.0251953 -0.0311656 0.00751576 0 0 0 -0.000123081 -0.000325742 5.57038e-05 -0.000270235 -0.000393704 0.00041447 -0.0318871 0.011256 0.0265209 0.004 300 0 
544 1 1 -0.0140213 -0.025306 0.00875697 0 0 0 -0.000830881 0.000326571 -0.00082122 -1.78888e-05 -5.00837e-05 -0.000217916 -0.131192 -0.0299432 -0.0836706 0.004 300 0 
29 1 1 -0.0045063 -0.0263814 0.00900611 0 0 0 -0.000282813 0.000184248 -0.000664446 0.000355181 -0.00014291 0.000349825 0.0152647 0.140765 0.0693927 0.004 300 0 
248 1 1 0.00349764 -0.0278394 0.00763028 0 0 0 -0.000293811 -0.000536918 -0.000151861 -0.000483705 -0.000379619 -0.000747698 -0.0063512 0.0859729 0.190755 0.004 300 0 
79 1 1 0.0358393 -0.0289471 0.0095982 0 0 0 -0.00032048 -0.000115709 2.39003e-05 -0.000321097 -0.00030255 -9.74791e-05 -0.0785117 0.0339415 0.116124 0.004 300 0 
291 1 1 -0.00458842 -0.0173992 0.00909624 0 0 0 -0.000237301 0.00039962 -0.000260202 0.000462868 0.000372882 0.000387226 0.122761 -0.0542122 -0.113261 0.004 300 0 
891 1 1 0.00373388 -0.015527 0.0063243 0 0 0 -0.000180241 -0.000316146 -0.000445709 0.000671603 -1.96017e-05 0.00156792 0.0356505 -0.169305 -0.128579 0.004 300 0 
870 1 1 0.0138363 -0.015629 0.00831566 0 0 0 -0.000340245 -0.000560453 -0.000567832 0.000652675 -0.000196924 -0.00067915 0.160151 -0.0294919 -0.228318 0.004 300 0 
777 1 1 0.0349628 -0.0187896 0.00772466 0 0 0 -0.000297535 0.000321276 -0.000253509 -0.000205951 -0.000618812 -1.96716e-05 0.219704 -0.0118039 0.175735 0.004 300 0 
837 1 1 -0.0294583 -0.0146672 0.00801869 0 0 0 0.000187223 -0.000161601 0.000263372 -0.000286786 -0.000517612 -0.000234212 -0.109881 -0.147563 -0.126396 0.004 300 0 
445 1 1 -0.0181337 -0.0138511 0.00995061 0 0 0 -0.000446365 0.000248762 -0.00028181 0.00067277 -0.000151843 -0.00051727 0.189252 -0.0380957 0.108479 0.004 300 0 
783 1 1 0.00486469 -0.00860452 0.00993505 0 0 0 -0.000205458 -0.000507061 1.4593e-05 0.00106704 -0.000609738 0.0019578 0.0090241 0.00665168 0.0507809 0.004 300 0 
615 1 1 -0.0350981 -0.000758271 0.00955017 0 0 0 8.94827e-05 -0.000251619 0.000373274 6.45815e-05 0.000119948 -0.000568378 0.0824536 0.054293 0.00392466 0.004 300 0 
476 1 1 -0.0459514 0.00262423 0.00988832 0 0 0 0.000140397 -3.65752e-05 0.000210618 1.56334e-05 -0.000372659 0.000372505 -0.0420627 -0.0230093 0.0128505 0.004 300 0 
16 1 1 -0.0210431 0.0016972 0.00831442 0 0 0 -0.00024076 3.96909e-05 -0.000281566 -0.000546032 -1.6992e-05 0.000164202 -0.020667 -0.0462674 -0.0108117 0.004 300 0 
303 1 1 0.0459482 0.00350312 0.00962431 0 0 0 -0.000147199 9.86469e-05 0.00039683 -0.000138356 -0.000148411 0.00141013 -0.0288641 -0.00279202 0.00908362 0.004 300 0 
523 1 1 -0.0389767 0.00803169 0.00933414 0 0 0 0.000184541 -9.45765e-05 0.000163107 -1.79566e-05 0.000124511 -4.18407e-05 -0.00431389 0.0815291 0.00495947 0.004 300 0 
704 1 1 -0.0107973 0.00519328 0.00743732 0 0 0 -0.000110716 0.000266656 -0.000102526 -5.135e-05 -0.000444414 -9.77845e-05 0.0349141 -0.00304528 -0.0165118 0.004 300 0 
454 1 1 0.00101016 0.00716082 0.0093395 0 0 0 1.66085e-05 0.000373886 -4.00825e-05 0.000404954 -0.000718663 0.000107525 0.14792 0.0805293 0.0894946 0.004 300 0 
31 1 1 0.0102155 0.00547745 0.00833128 0 0 0 -0.000276716 -2.02407e-05 -8.03542e-05 0.000683233 -0.000719287 0.000384391 0.0598853 0.0198644 -0.0763897 0.004 300 0 
135 1 1 0.0188888 0.00749129 0.00960764 0 0 0 -4.05268e-05 -0.000229826 -0.000140423 0.000978268 0.000392807 0.00046742 0.0441749 0.0387218 -0.0337454 0.004 300 0 
712 1 1 0.0281134 0.00743322 0.00999029 0 0 0 0.000521452 -0.000212729 0.0005196 -0.000780594 0.00159568 0.000589081 -0.0636007 0.116623 -0.0180074 0.004 300 0 
210 1 1 0.0394915 0.00814349 0.00989602 0 0 0 2.97217e-05 0.00039192 0.00121689 -0.000194777 0.000355248 8.12589e-05 0.0895536 0.0651568 -0.086446 0.004 300 0 
651 1 1 -0.0437979 0.0143395 0.00824216 0 0 0 5.01534e-05 -1.92904e-05 1.17259e-05 5.9429e-05 0.000156002 -4.69687e-05 -0.0864295 0.0486548 0.0245957 0.004 300 0 
621 1 1 0.0437192 0.0147813 0.00900542 0 0 0 -0.000115571 0.000313836 0.000893286 -9.34602e-05 0.00032236 -0.000286579 -0.0996335 0.108125 -0.0516463 0.004 300 0 
726 1 1 -0.025767 0.0199961 0.00693125 0 0 0 -9.76767e-05 -6.13512e-06 -0.000134887 0.000357255 0.000414296 0.000180919 -0.0339172 0.0889309 0.0453023 0.004 300 0 
230 1 1 -0.00847493 0.0245854 0.00973708 0 0 0 -3.13605e-05 0.000469551 -0.000280846 -3.03237e-05 -0.000128093 0.00147782 -0.0513382 -0.103687 -0.179762 0.004 300 0 
320 1 1 -0.00171769 0.0203917 0.00978051 0 0 0 0.000119024 0.000182009 -0.000264331 0.000776615 -3.13107e-06 0.00128484 0.0092409 0.106777 0.147476 0.004 300 0 
7 1 1 0.0129158 0.0224322 0.00918232 0 0 0 0.000740186 -0.00029176 0.000142612 -0.000399851 -0.000684367 -2.25471e-06 -0.177054 -0.0255604 0.0488519 0.004 300 0 
83 1 1 0.0214173 0.0239654 0.00887982 0 0 0 -0.000156674 -0.000646734 0.000645081 0.000216617 0.000729598 0.000657914 -0.0313081 -0.288276 0.00777926 0.004 300 0 
747 1 1 -0.0337265 0.0313859 0.00973308 0 0 0 -8.10832e-05 -0.00022851 0.000514604 0.000616517 -0.000165382 -0.000516813 0.229245 0.0861596 0.157162 0.004 300 0 
51 1 1 -0.022619 0.0329649 0.00702776 0 0 0 -0.000394555 -4.88734e-07 0.000263082 0.00117774 0.000425215 0.000364591 0.239726 -0.0791936 0.0188424 0.004 300 0 
116 1 1 -0.00939629 0.0391142 0.00811977 0 0 0 0.000218588 -0.000254555 0.00210399 0.000558593 -0.000757465 0.000674369 0.172688 0.2943 -0.0287128 0.004 300 0 
205 1 1 -0.000561959 -0.0460761 0.0110207 0 0 0 6.85339e-05 -0.00037611 -0.00021956 0.000102754 -0.00043131 -0.000959758 -0.0335917 0.183997 0.0368839 0.004 300 0 
836 1 1 0.00738138 -0.0454686 0.0106559 0 0 0 -0.00017478 -0.000161068 -3.03195e-05 -7.39688e-05 -5.34691e-05 -0.000405138 0.030825 -0.135776 0.0194624 0.004 300 0 
486 1 1 -0.0157557 -0.040183 0.0103611 0 0 0 0.000778057 -0.001137 -0.000232127 -0.000132861 -0.000232872 0.00148234 0.127855 0.103788 0.217214 0.004 300 0 
311 1 1 -0.00837543 -0.0440498 0.010693 0 0 0 0.000721295 0.00428192 -0.00136729 0.000103683 -0.000139309 -0.000670596 -1.3669 0.208018 -0.079669 0.004 300 0 
447 1 1 0.0180531 -0.0423876 0.011832 0 0 0 8.16394e-05 -0.000100711 3.43099e-05 0.000106667 -0.000547946 -0.00043749 0.0428935 -0.0459923 0.0235382 0.004 300 0 
538 1 1 -0.0295777 -0.0353467 0.0149872 0 0 0 -4.41641e-05 -0.000101794 0.000239872 -0.000212011 -0.000393436 -0.000202965 0.0237077 -0.0470383 0.027401 0.004 300 0 
279 1 1 0.0111522 -0.0385397 0.0114115 0 0 0 8.96651e-05 -0.000298674 0.000132702 0.000119166 -0.000690664 -0.00109919 0.0313584 0.044993 -0.0195899 0.004 300 0 
110 1 1 0.0250446 -0.0386632 0.0117241 0 0 0 7.77638e-05 -8.02708e-05 3.59773e-05 -7.49515e-05 -0.000591929 8.14867e-05 -0.0372936 0.0273338 -0.00738938 0.004 300 0 
188 1 1 -0.0179005 -0.0321109 0.0101678 0 0 0 -0.000631921 0.000159729 -0.000330307 1.65938e-05 -0.000510011 -0.000661452 -0.0551626 -0.0155495 0.201616 0.004 300 0 
810 1 1 -0.0102652 -0.034451 0.0102033 0 0 0 -0.000464204 0.000316207 -0.000387939 -0.000162363 -0.000444916 -0.000128462 -0.231935 -0.0907729 0.0459244 0.004 300 0 
412 1 1 -0.00317314 -0.0328856 0.0133513 0 0 0 -0.000187853 8.84509e-05 -0.00106512 0.00018305 -0.000787784 -0.000172516 -0.0245703 0.160897 -0.23028 0.004 300 0 
545 1 1 0.00451758 -0.034305 0.0121917 0 0 0 0.000103705 -0.00074468 -0.000401588 -0.000281857 -0.00092896 -0.000973621 0.0600805 -0.28794 0.0296361 0.004 300 0 
100 1 1 0.011504 -0.0305906 0.0117042 0 0 0 1.44328e-05 -0.000140031 0.000366462 -0.000294709 -0.00076772 -0.000608618 0.036443 0.0574963 0.155567 0.004 300 0 
556 1 1 0.0183644 -0.034477 0.0109239 0 0 0 0.000212298 3.17188e-05 2.47929e-06 6.1479e-05 -0.000643946 0.000355387 -0.135936 0.118136 -0.0700174 0.004 300 0 
32 1 1 0.0311331 -0.0339588 0.0134784 0 0 0 5.04314e-06 -0.000157626 0.000110341 -0.000299484 -0.000523016 1.08424e-05 0.0547939 -0.0552575 0.00592237 0.004 300 0 
5 1 1 -0.0386735 -0.0250109 0.0114427 0 0 0 3.44658e-05 -8.29817e-05 0.00010838 -0.00027079 -0.000183833 -2.85983e-05 0.0265797 0.00395559 -0.021703 0.004 300 0 
415 1 1 -0.0253859 -0.0293689 0.0104125 0 0 0 -0.000556843 1.27047e-05 0.000441991 -8.97355e-05 -8.27719e-05 -0.000489421 -0.173223 -0.0144611 -0.197426 0.004 300 0 
446 1 1 -0.0096817 -0.0280553 0.0148367 0 0 0 -0.00102358 0.000592678 -0.00112597 0.000746652 -0.00105667 1.28133e-05 0.130816 0.0794319 0.220587 0.004 300 0 
814 1 1 0.0190771 -0.0262831 0.0103708 0 0 0 -0.000163226 -0.000312239 7.29791e-05 0.000319551 -0.00069196 -0.000415144 -0.137717 0.00175855 0.0535018 0.004 300 0 
24 1 1 0.0289666 -0.0255351 0.0115669 0 0 0 -0.000500632 -0.000457824 -4.32674e-05 -0.00030442 -0.000479089 0.000299376 0.00412905 -0.0131734 0.0261177 0.004 300 0 
266 1 1 -0.0293276 -0.0224316 0.0104445 0 0 0 -4.83205e-05 9.60327e-05 0.000161574 -0.000611603 -0.000207417 2.86522e-05 -0.0558449 0.0509581 0.0198898 0.004 300 0 
487 1 1 -0.0208092 -0.0214227 0.0102399 0 0 0 -0.000910816 0.000389786 -0.000211094 -0.000837986 -0.000283926 -0.000372701 -0.249285 -0.230673 0.291323 0.004 300 0 
655 1 1 0.0019239 -0.0211528 0.011581 0 0 0 -0.000548661 -0.000530917 -0.000718613 -0.000318353 -0.000810338 0.000582723 0.103364 0.231049 -0.153137 0.004 300 0 
243 1 1 0.0112864 -0.0227091 0.0108886 0 0 0 -0.000738162 -0.000438094 -0.000342802 0.00013297 -0.00086411 -0.00109051 -0.224284 0.198899 0.0345503 0.004 300 0 
528 1 1 0.0400438 -0.0227778 0.0122858 0 0 0 -5.9181e-05 -0.000279378 -0.000881955 -8.2828e-05 -0.00120436 -0.000329978 -0.100201 0.130227 -0.294617 0.004 300 0 
356 1 1 -0.0361814 -0.0175056 0.0110165 0 0 0 -0.000108241 -9.5376e-06 1.38519e-05 -0.000263318 -0.000652669 -0.000246693 0.129139 -0.0259211 0.0647455 0.004 300 0 
739 1 1 -0.0119213 -0.0183472 0.0119061 0 0 0 -0.000513539 0.000276501 -0.000918737 0.000428154 -5.42667e-05 4.40936e-05 0.204255 -0.0720466 -0.0160262 0.004 300 0 