ITEM: TIMESTEP
35200
ITEM: NUMBER OF ATOMS
891
ITEM: BOX BOUNDS mm mm mm
-0.05 0.05
-0.05 0.05
0 0.15
ITEM: ATOMS id type type x y z ix iy iz vx vy vz fx fy fz omegax omegay omegaz radius f_Temp[0] f_heatFlux[0] 
199 1 1 -0.00444377 -0.0458158 0.00397435 0 0 0 -4.9954e-08 1.33785e-07 3.12919e-07 -1.10206e-07 -1.98732e-08 9.32071e-08 2.17073e-05 2.92958e-06 2.02379e-06 0.004 486.499 3.02166 
873 1 1 -0.0201484 -0.0414789 0.0039016 0 0 0 -3.36945e-07 -7.38345e-08 -1.00457e-07 -2.81324e-07 -3.95096e-08 1.57261e-07 -2.02763e-05 -6.25507e-05 3.92881e-05 0.004 394.344 4.38806 
485 1 1 -0.0126796 -0.0442534 0.00397264 0 0 0 -1.27021e-07 -7.01402e-08 9.82731e-08 -1.68049e-07 -2.0226e-07 1.44268e-07 3.30582e-05 -1.18357e-05 4.10786e-06 0.004 429.03 4.69829 
850 1 1 0.00335642 -0.0441759 0.00394115 0 0 0 -1.48398e-07 4.78525e-07 5.13683e-07 -2.12971e-07 -3.8335e-08 2.27755e-07 -3.80795e-05 -1.10895e-05 8.16859e-05 0.004 552.657 0.22055 
186 1 1 0.0114401 -0.0445988 0.00392827 0 0 0 -2.13592e-07 2.15814e-07 6.37929e-07 -1.50391e-07 1.74112e-08 2.27848e-07 7.46035e-06 3.80855e-05 2.31511e-05 0.004 647.66 -3.32809 
560 1 1 0.018969 -0.0420006 0.00394676 0 0 0 -4.67171e-07 2.3022e-07 5.73746e-07 -1.62847e-07 5.11179e-08 2.51475e-07 9.25611e-06 7.62785e-06 -4.32863e-06 0.004 683.996 -4.00841 
102 1 1 -0.0147501 -0.0357331 0.00386311 0 0 0 -6.18725e-07 -1.16871e-07 5.25754e-08 -3.89307e-07 -1.42648e-07 5.22583e-07 9.06636e-06 -8.82925e-05 3.55475e-06 0.004 420.195 3.70593 
88 1 1 -0.00730762 -0.0383837 0.00392727 0 0 0 -4.77892e-07 1.29251e-07 3.92472e-07 -3.38475e-07 -1.40966e-07 3.87457e-07 1.30765e-05 -5.91666e-05 8.27598e-05 0.004 468.437 2.97296 
776 1 1 0.00520385 -0.0354368 0.00395023 0 0 0 -8.20399e-07 4.26509e-07 1.13351e-06 -3.63431e-07 -1.7619e-07 4.31804e-07 -9.29466e-05 2.18142e-05 -5.66199e-05 0.004 601.103 -1.50266 
410 1 1 0.0130236 -0.0368131 0.00392572 0 0 0 -9.00153e-07 3.19786e-07 1.19912e-06 -3.52671e-07 1.36258e-08 5.34881e-07 -5.83822e-06 -8.00073e-05 6.72961e-05 0.004 655.46 -3.22973 
282 1 1 0.025876 -0.0381319 0.00388527 0 0 0 -6.5496e-07 6.76618e-08 5.8856e-07 -3.40099e-07 -1.69604e-08 3.28585e-07 7.52362e-05 -9.8776e-05 7.75017e-05 0.004 726.455 -4.21234 
682 1 1 -0.0302016 -0.0348779 0.00393465 0 0 0 -2.32589e-07 2.15045e-08 -2.28513e-07 -1.24342e-07 -2.42195e-08 3.26098e-08 -2.85376e-05 6.46285e-06 3.13436e-05 0.004 345.545 3.48507 
251 1 1 -0.0224189 -0.0338476 0.00392332 0 0 0 -5.73792e-07 -8.92637e-08 -3.40745e-07 -3.42047e-07 -3.44181e-08 2.20493e-07 1.3969e-05 -5.52933e-05 7.54876e-08 0.004 379.086 3.96388 
770 1 1 -0.00204754 -0.0321408 0.00393964 0 0 0 -1.01479e-06 4.29789e-07 9.62733e-07 -4.07165e-07 -2.55312e-07 4.88529e-07 -3.84487e-05 -0.00018499 0.000148413 0.004 543.606 0.28814 
883 1 1 0.018166 -0.0307536 0.00390023 0 0 0 -1.46425e-06 4.05212e-07 1.91465e-06 -6.25626e-07 9.58146e-08 1.09824e-06 -4.35756e-05 -0.000320107 -4.98568e-06 0.004 695.888 -3.80563 
838 1 1 0.0320336 -0.033109 0.00396072 0 0 0 -9.30427e-07 4.55517e-08 1.23914e-06 -3.95725e-07 -7.51902e-08 6.20516e-07 0.000205755 -5.19175e-05 0.000104015 0.004 752.724 -3.81122 
617 1 1 -0.0372521 -0.0271215 0.00391646 0 0 0 -1.90609e-07 -4.268e-08 -3.83526e-07 -5.30733e-08 3.72733e-09 6.00622e-08 2.42031e-05 7.9533e-06 1.98807e-05 0.004 321.874 2.56914 
824 1 1 -0.0292998 -0.0270298 0.00392984 0 0 0 -3.89275e-07 2.42419e-07 -5.34975e-07 -2.1324e-07 -1.00165e-07 2.8073e-07 -6.88615e-05 -3.87905e-05 1.94218e-05 0.004 335.419 3.1356 
571 1 1 -0.0202615 -0.0262215 0.00393284 0 0 0 -8.71729e-07 3.95529e-08 -3.28956e-07 -3.61252e-07 -1.36811e-07 5.76271e-07 -3.73333e-05 -0.000177549 -2.45217e-05 0.004 375.47 3.87779 
861 1 1 -0.00959294 -0.0297304 0.00389698 0 0 0 -1.08058e-06 -3.41678e-08 3.98793e-07 -4.73926e-07 -2.85889e-07 7.64438e-07 -1.75657e-05 -0.00016878 3.98655e-05 0.004 460.789 2.6617 
434 1 1 0.0103455 -0.0293807 0.00393742 0 0 0 -1.3643e-06 3.72695e-07 1.41684e-06 -4.85807e-07 -2.10174e-08 7.45373e-07 -7.8537e-06 -9.42519e-05 3.69673e-05 0.004 645.547 -2.73496 
103 1 1 0.0311547 -0.0252347 0.00394362 0 0 0 -1.20979e-06 1.12706e-07 1.74091e-06 -5.27344e-07 -1.78749e-07 8.03145e-07 -8.39247e-05 8.56209e-05 -6.62914e-05 0.004 760.112 -3.38275 
769 1 1 -0.041344 -0.0202818 0.0039823 0 0 0 -1.13706e-07 4.37881e-08 -1.84189e-07 -3.71746e-08 8.34971e-09 2.54634e-08 -1.96656e-05 3.6476e-05 1.02311e-05 0.004 314.137 2.03602 
94 1 1 -0.0333714 -0.0202163 0.0039437 0 0 0 -3.51174e-07 1.87713e-07 -7.10415e-07 -1.02502e-07 -7.80331e-08 2.32898e-07 -5.69842e-05 5.89643e-05 2.34772e-05 0.004 324.836 2.58688 
40 1 1 -0.025401 -0.0201464 0.00391761 0 0 0 -5.62659e-07 3.80406e-07 -7.3338e-07 -1.75763e-07 -1.53369e-07 4.81073e-07 -2.24859e-06 -5.36452e-05 -8.74533e-08 0.004 346.206 3.27264 
19 1 1 -0.00865072 -0.0218804 0.00393966 0 0 0 -1.37967e-06 9.23502e-08 5.12294e-07 -4.83011e-07 -2.59422e-07 7.83146e-07 3.46594e-05 -0.000312062 1.42373e-05 0.004 462.864 2.58092 
442 1 1 -0.000436967 -0.02185 0.00393583 0 0 0 -1.4325e-06 9.01096e-08 1.08257e-06 -4.89516e-07 -3.4522e-07 9.86531e-07 -7.59939e-06 -0.000206535 7.86738e-05 0.004 552.251 0.0560179 
259 1 1 0.00753191 -0.0220001 0.00392511 0 0 0 -1.43241e-06 4.27181e-07 1.30632e-06 -3.40593e-07 -1.75964e-07 9.15029e-07 3.72026e-05 -0.000179837 -2.24643e-05 0.004 630.403 -2.25054 
512 1 1 0.0153883 -0.0232356 0.00397834 0 0 0 -1.51054e-06 1.01742e-07 1.41698e-06 -5.00533e-07 -2.39477e-09 8.41915e-07 -7.17668e-05 -0.000122721 -6.506e-05 0.004 690.963 -3.43634 
470 1 1 0.0232616 -0.0243589 0.00390815 0 0 0 -1.54695e-06 1.61399e-07 2.47098e-06 -5.7675e-07 -7.18628e-08 1.23598e-06 -3.14161e-05 -0.000196912 9.3311e-05 0.004 732.59 -3.83305 
451 1 1 0.0390293 -0.0244875 0.00392048 0 0 0 -8.4361e-07 -2.91885e-07 3.69207e-07 -3.60154e-07 -1.76208e-07 1.49123e-07 8.09822e-05 -4.96912e-05 5.1826e-05 0.004 776.739 -2.62136 
531 1 1 -0.0164596 -0.0192004 0.00396125 0 0 0 -8.92248e-07 1.83107e-07 -5.92872e-08 -2.57466e-07 -1.44556e-07 5.85338e-07 -4.6348e-05 -0.000209397 0.000121255 0.004 386.398 4.04619 
229 1 1 0.0202059 -0.0169136 0.00386875 0 0 0 -2.20642e-06 -7.75497e-09 2.74187e-06 -5.4841e-07 -9.59639e-08 1.26233e-06 0.000130267 -0.000299325 0.000148679 0.004 721.946 -3.5438 
734 1 1 0.0280521 -0.017942 0.00394397 0 0 0 -1.46862e-06 -4.94414e-08 2.23197e-06 -5.78356e-07 -4.71687e-07 7.23121e-07 0.000114213 8.69272e-06 -3.79557e-06 0.004 759.073 -3.16325 
635 1 1 0.0425981 -0.0174495 0.00392191 0 0 0 -7.27556e-07 -3.99695e-08 5.43509e-07 -3.0654e-07 -7.6491e-08 2.0833e-07 -3.10768e-06 -0.000164468 -1.47403e-05 0.004 789.078 -1.66499 
87 1 1 -0.0448224 -0.0104639 0.0039142 0 0 0 -4.0844e-07 1.50342e-07 -4.16696e-07 6.11144e-08 -9.42044e-08 1.91411e-08 1.94313e-05 -6.22191e-05 -6.61697e-05 0.004 306.896 1.23501 
406 1 1 -0.0373951 -0.013391 0.00396016 0 0 0 -3.8387e-07 2.02396e-07 -5.41527e-07 1.9543e-08 -8.53863e-09 7.43164e-08 -3.56995e-05 4.03231e-07 4.59229e-05 0.004 313.262 1.84667 
224 1 1 -0.0230581 -0.0126019 0.00387961 0 0 0 -9.28305e-07 8.34348e-07 -5.21409e-07 -1.02227e-07 -2.96792e-07 3.84911e-07 -0.000146171 -0.000220838 6.97274e-05 0.004 359.585 3.24802 
751 1 1 -0.0102996 -0.0141545 0.00396945 0 0 0 -1.29076e-06 5.51656e-07 4.6019e-07 -2.63703e-07 -1.48403e-07 2.58905e-07 -5.03672e-05 -3.6906e-05 -2.19408e-05 0.004 439.828 2.91837 
622 1 1 -0.00273388 -0.0117409 0.00388523 0 0 0 -1.91252e-06 3.56306e-07 1.31013e-06 -8.8565e-08 -2.03753e-07 6.83595e-07 -0.000106597 -0.00043066 -5.56719e-06 0.004 510.678 1.09141 
128 1 1 0.00951067 -0.010685 0.00388458 0 0 0 -2.4342e-06 5.50315e-07 2.35676e-06 -2.98997e-07 -5.69116e-09 1.15466e-06 -0.000167011 -0.000312707 -0.000112445 0.004 655.108 -2.72847 
68 1 1 0.0262808 -0.010211 0.00395438 0 0 0 -2.18915e-06 -2.74106e-07 2.29563e-06 -4.84439e-07 -4.8712e-07 8.61527e-07 -2.71493e-05 -0.000168952 8.9618e-05 0.004 762.782 -3.01209 
791 1 1 0.0340945 -0.0118532 0.00392801 0 0 0 -1.37926e-06 -7.67152e-07 7.11365e-07 -4.27098e-07 -9.25325e-07 4.24721e-07 0.000428997 -0.000193173 0.000187524 0.004 782.116 -2.20586 
354 1 1 -0.0380748 -0.00550396 0.00392042 0 0 0 -4.72937e-07 3.41117e-07 -7.04398e-07 1.8501e-07 -6.89048e-08 5.45756e-08 -6.93336e-05 -7.97704e-05 6.81953e-06 0.004 311.835 1.63023 
725 1 1 -0.0304901 -0.00800531 0.0039252 0 0 0 -5.81025e-07 4.53328e-07 -5.97248e-07 1.2383e-07 -2.06394e-07 1.46436e-07 4.61742e-05 -0.000113902 -3.8665e-05 0.004 322.532 2.31232 
353 1 1 -0.0161288 -0.00879809 0.00391143 0 0 0 -9.83154e-07 9.13377e-07 -1.36559e-09 -6.40938e-08 -4.23294e-07 2.60394e-07 -0.000182357 -0.000114813 -4.95982e-05 0.004 399.124 3.26393 
391 1 1 -0.00857661 -0.00639748 0.00391357 0 0 0 -1.20932e-06 6.05836e-07 5.0106e-07 -4.51506e-08 -1.14405e-08 2.05276e-07 9.25898e-06 -0.000143569 -2.42756e-05 0.004 458.514 2.43459 
683 1 1 0.0173533 -0.00945629 0.00390986 0 0 0 -2.29545e-06 -5.61217e-08 2.40203e-06 -3.7177e-07 4.84003e-08 1.09407e-06 -0.000109574 -0.000266063 -7.63855e-05 0.004 712.346 -3.52062 
690 1 1 0.0385537 -0.00520142 0.00390022 0 0 0 -1.11899e-06 -1.23673e-06 1.23114e-06 -2.33956e-07 -7.92008e-07 4.72273e-07 0.000341181 -0.00017027 0.000216058 0.004 790.023 -1.47799 
10 1 1 0.0449635 -0.00990888 0.00397399 0 0 0 -2.55949e-07 -9.69632e-08 2.80037e-07 9.02613e-09 -7.29805e-08 4.2918e-10 -7.12684e-05 5.5328e-05 -2.00476e-06 0.004 793.515 -1.1773 
402 1 1 -0.046017 -0.00264172 0.00392182 0 0 0 -2.93768e-07 2.40203e-07 -5.40036e-07 1.10234e-07 -9.9264e-08 8.3708e-08 -5.83029e-05 2.79978e-05 5.51736e-05 0.004 307.214 1.2088 
761 1 1 -0.0294744 -0.000168335 0.00392563 0 0 0 -7.10546e-07 7.13835e-07 -5.49095e-07 2.56135e-07 -1.56276e-07 1.2431e-07 -7.92609e-05 -0.000123196 3.35588e-05 0.004 332.445 2.6178 
293 1 1 -0.0229324 -0.00466873 0.0039595 0 0 0 -8.20285e-07 9.15489e-07 -3.88898e-07 7.70257e-08 -2.30293e-07 2.05037e-07 -1.84458e-05 -5.33675e-05 2.02242e-05 0.004 358.084 3.27577 
384 1 1 -0.0147085 -0.00088718 0.0039815 0 0 0 0.000482433 0.000450356 3.84132e-09 2.36074e-13 1.82935e-13 -1.22804e-08 -0.11285 0.120888 0.176243 0.004 302.583 0 
378 1 1 0.0013061 -0.00490406 0.00392906 0 0 0 -2.00071e-06 2.51144e-07 1.21759e-06 1.32027e-07 -4.75015e-08 4.55911e-07 -0.000201025 -0.000452541 -0.000130781 0.004 556.093 -0.173926 
390 1 1 0.0103707 -0.00276531 0.00396886 0 0 0 -2.06373e-06 3.43562e-07 1.67711e-06 -2.03634e-07 1.525e-07 6.68629e-07 -7.65012e-05 -0.000313114 -0.000100744 0.004 670.838 -3.3255 
411 1 1 0.0223603 -0.00329286 0.00397625 0 0 0 -2.12595e-06 -3.5526e-07 2.43229e-06 2.35177e-07 -4.5039e-07 8.66002e-07 0.000123857 -0.000288903 -5.50059e-06 0.004 746.869 -3.50061 
342 1 1 0.0307348 -0.00361665 0.00397529 0 0 0 -1.02639e-06 -7.54906e-07 8.64101e-07 -3.53029e-07 -4.87187e-07 3.21213e-07 -2.85163e-05 -1.71101e-05 -0.000326803 0.004 781.899 -2.14388 
262 1 1 0.0460221 -0.00206505 0.00395833 0 0 0 -4.39704e-07 -3.00101e-07 2.07255e-07 5.39464e-08 -2.33088e-07 -4.11653e-08 0.000127824 -6.49659e-05 0.000108308 0.004 793.8 -1.13768 
261 1 1 -0.0398214 0.00224601 0.00393476 0 0 0 -5.2521e-07 3.78404e-07 -7.86099e-07 1.7609e-07 -1.11997e-07 3.04112e-08 -7.02774e-06 -1.25543e-05 6.99098e-06 0.004 312.326 1.59274 
666 1 1 -0.00454676 0.000451427 0.00395604 0 0 0 -1.30047e-06 5.13786e-07 6.59797e-07 2.86069e-07 -1.66652e-07 3.13076e-07 6.39037e-05 -2.11421e-05 -2.07241e-05 0.004 499.183 1.517 
815 1 1 0.00434368 0.0024356 0.00392711 0 0 0 -2.33686e-06 3.31473e-07 1.50935e-06 2.10073e-07 -2.07284e-08 2.23175e-07 0.000132158 -0.000453841 0.000151856 0.004 604.165 -1.5505 
306 1 1 0.01637 0.00247667 0.00395809 0 0 0 -1.90734e-06 1.25556e-08 1.90579e-06 6.41883e-07 -5.11556e-07 6.04435e-07 -0.000166234 -0.000313339 -5.48698e-05 0.004 718.547 -3.92626 
178 1 1 0.0241042 0.00444176 0.00386114 0 0 0 -1.64974e-06 -6.72352e-07 2.53919e-06 5.87525e-07 -5.78362e-07 7.79597e-07 -0.000161356 -0.000272157 -0.000161519 0.004 750.102 -3.34468 
862 1 1 0.0320656 0.00423367 0.00393097 0 0 0 -1.09578e-06 -7.33084e-07 1.98507e-06 3.07351e-07 -5.57117e-07 5.13324e-07 0.000300222 7.69614e-05 0.000204571 0.004 776.653 -2.3604 
661 1 1 0.0398756 0.0029147 0.0039468 0 0 0 -8.06426e-07 -5.23765e-07 7.01404e-07 8.92047e-09 -5.2485e-07 9.29064e-08 0.000208191 -2.96106e-05 -6.44305e-06 0.004 789.344 -1.52766 
677 1 1 -0.0453782 0.0078854 0.00393641 0 0 0 -2.65928e-07 2.41996e-07 -3.64618e-07 4.1397e-08 -9.72878e-08 -1.795e-09 -1.85242e-05 1.56463e-05 1.06048e-05 0.004 307.428 1.2523 
12 1 1 -0.0333161 0.0067196 0.00393696 0 0 0 -7.05375e-07 5.52648e-07 -7.56671e-07 1.54568e-07 -6.8088e-08 7.95732e-09 -2.2526e-05 -5.15081e-05 1.37806e-05 0.004 324.498 2.28213 
420 1 1 -0.0254 0.00664838 0.00392687 0 0 0 -9.71169e-07 9.07501e-07 -4.09983e-07 2.31636e-07 -7.40011e-08 9.66035e-08 -0.00011491 -0.000118481 3.52169e-05 0.004 348.886 2.99884 
654 1 1 -0.0175134 0.00720947 0.00387212 0 0 0 -1.26287e-06 1.14528e-06 2.58983e-07 3.14913e-07 -1.46415e-07 -5.53277e-08 -0.000183976 -0.000199507 2.49305e-05 0.004 388.87 3.29712 
145 1 1 -0.00454407 0.00836537 0.00386311 0 0 0 -1.77465e-06 7.36269e-07 1.10081e-06 4.10995e-07 -1.01732e-07 1.82189e-07 -0.000138777 -0.000369085 1.39431e-05 0.004 497.887 1.60499 
624 1 1 0.0451449 0.00890653 0.00390657 0 0 0 -9.80442e-07 -4.75473e-07 7.43216e-07 -1.37279e-07 -3.62699e-07 2.05262e-07 6.38374e-05 -0.000178694 -2.23504e-05 0.004 792.279 -1.3071 
613 1 1 -0.0372991 0.0135339 0.00384344 0 0 0 -5.30785e-07 3.976e-07 -5.62919e-07 4.26683e-08 -5.67701e-08 -1.36316e-07 5.89464e-06 -8.98032e-05 -2.19185e-05 0.004 315.713 1.92668 
265 1 1 -0.0293062 0.0135429 0.00396371 0 0 0 -7.80874e-07 5.79569e-07 -4.76791e-07 1.59584e-07 1.31981e-08 -1.36789e-08 2.92549e-05 -1.85843e-06 4.29065e-05 0.004 335.06 2.88024 
273 1 1 -0.0213694 0.0141274 0.00392939 0 0 0 -1.02133e-06 8.73809e-07 -3.37863e-07 2.66645e-07 -1.10048e-08 -3.00037e-08 -7.51261e-05 -0.000156154 -5.62478e-05 0.004 360.618 3.41831 
492 1 1 -0.01145 0.0123712 0.00398079 0 0 0 -1.47861e-06 1.02826e-06 2.29526e-07 4.24544e-07 -1.84973e-07 4.77263e-08 -0.000122482 -0.000171092 -2.03068e-05 0.004 437.738 3.33719 
234 1 1 0.00585285 0.010393 0.0039289 0 0 0 -2.09109e-06 -4.18903e-08 1.68159e-06 3.60269e-07 -2.44918e-07 1.75037e-07 -0.000207345 -0.000258935 -0.000147515 0.004 598.845 -1.17441 
160 1 1 0.0142843 0.0106356 0.00390957 0 0 0 -2.13159e-06 -7.22551e-07 1.96775e-06 3.70538e-07 -4.16693e-07 2.99233e-07 4.23068e-05 -0.000338222 0.000120709 0.004 687.01 -3.12073 
484 1 1 0.0220893 0.0120738 0.00390119 0 0 0 -1.23771e-06 -7.81263e-07 1.89173e-06 3.29082e-07 -4.83357e-07 4.65034e-07 0.000150065 1.49287e-05 -8.50388e-06 0.004 736.936 -3.36568 
743 1 1 0.0300184 0.0126216 0.00398127 0 0 0 -8.42794e-07 -1.13679e-06 5.11736e-07 2.02211e-07 -7.06114e-07 -1.77732e-08 0.00016728 7.36631e-05 -0.000113594 0.004 764.096 -2.87013 
514 1 1 0.0379536 0.0130186 0.00386905 0 0 0 -9.97647e-07 -8.56063e-07 1.14501e-06 1.75498e-08 -5.41804e-07 2.82268e-07 0.000231089 -0.000231728 0.000226386 0.004 782.614 -2.03673 
530 1 1 -0.0159002 0.0198648 0.00392796 0 0 0 -1.13413e-06 7.63571e-07 4.18393e-07 3.24203e-07 -1.42629e-08 -1.07272e-07 -0.00011206 -0.000279773 3.27101e-05 0.004 389.252 3.58888 
227 1 1 -0.00736503 0.0192084 0.00396595 0 0 0 -1.3369e-06 7.22461e-07 5.83019e-07 3.6936e-07 5.28907e-09 9.93783e-08 -0.000111693 -0.000231677 -0.000107992 0.004 475.378 2.54233 
392 1 1 -0.000498629 0.0151513 0.00394446 0 0 0 -1.60104e-06 3.427e-07 1.13227e-06 3.50312e-07 -7.35228e-08 1.27761e-07 -4.02937e-05 -2.92782e-05 -3.25767e-05 0.004 535.873 0.688315 
493 1 1 0.00985839 0.0172531 0.00394647 0 0 0 -1.64163e-06 -8.77263e-07 1.63302e-06 3.12841e-07 -2.73004e-07 2.98028e-07 0.000215839 -0.000137243 -7.94134e-05 0.004 640.999 -2.15215 
34 1 1 0.0176357 0.0187852 0.00394099 0 0 0 -1.16852e-06 -1.24082e-06 1.95732e-06 4.05121e-07 -5.24665e-07 3.71134e-07 0.000332239 -9.24955e-05 4.45103e-05 0.004 699.587 -3.11927 
206 1 1 0.0255397 0.0192353 0.00396993 0 0 0 -8.6114e-07 -9.25307e-07 1.27606e-06 2.99259e-07 -5.20106e-07 2.73135e-07 9.97633e-05 0.000243403 4.71134e-05 0.004 744.552 -3.23274 
104 1 1 0.0334175 0.0199346 0.0038965 0 0 0 -1.2013e-06 -8.90612e-07 1.00892e-06 3.9545e-08 -3.88156e-07 2.32131e-07 0.000220784 -0.000279655 -3.47642e-05 0.004 769.316 -2.74099 
809 1 1 -0.0412058 0.0204949 0.00395497 0 0 0 -1.92701e-07 2.15136e-07 -2.15369e-07 3.04673e-08 -3.47287e-08 -6.07965e-08 1.92779e-05 -1.97637e-05 -1.72991e-05 0.004 311.126 1.73228 
773 1 1 -0.0331523 0.0204531 0.00393522 0 0 0 -6.21138e-07 4.40335e-07 -3.62669e-07 1.29695e-07 7.53232e-08 -1.4937e-07 -9.31603e-06 -0.000125431 -7.28521e-05 0.004 326.545 2.75825 
792 1 1 0.00347677 0.0219735 0.00392105 0 0 0 -1.22292e-06 -3.38098e-07 1.08314e-06 3.28749e-07 -1.5485e-07 2.43801e-07 -1.21935e-05 -0.000222552 -0.000147194 0.004 582.715 -0.728838 
718 1 1 0.0413199 0.0203659 0.00392989 0 0 0 -7.27471e-07 -4.8348e-07 7.19815e-07 -4.27194e-09 -2.46712e-07 1.04998e-07 5.12643e-05 1.21579e-05 2.29782e-05 0.004 782.298 -2.17702 
101 1 1 -0.0371146 0.0272995 0.00390402 0 0 0 -2.02754e-07 3.0285e-07 -1.99363e-07 4.80576e-08 7.59626e-08 -7.02694e-08 -2.42929e-05 -1.15994e-05 7.35874e-06 0.004 320.279 2.46859 
246 1 1 -0.0290567 0.0272807 0.00398271 0 0 0 -6.33759e-07 2.01112e-07 -5.36887e-08 2.21748e-07 2.72992e-08 -4.93783e-08 -3.53173e-06 -8.27583e-05 4.63046e-05 0.004 331.893 3.21284 
331 1 1 -0.0212281 0.0257798 0.00390018 0 0 0 -8.13762e-07 5.26449e-07 2.7276e-08 2.30892e-07 8.75608e-08 -9.30931e-08 -5.19779e-05 -2.15518e-05 7.06783e-06 0.004 362.16 3.57614 
846 1 1 -0.0134708 0.0274168 0.0039748 0 0 0 -1.01032e-06 5.44675e-07 6.35394e-08 4.85868e-07 -8.9222e-08 4.38145e-08 -0.000156368 -0.000174015 -6.37848e-05 0.004 410.086 3.26987 
348 1 1 -0.00329916 0.0260612 0.00393374 0 0 0 -8.24469e-07 1.19538e-07 6.57566e-07 3.8053e-07 -7.76852e-08 1.37798e-07 -2.7424e-05 1.16153e-05 -2.41783e-05 0.004 518.566 1.13243 
786 1 1 0.00840353 0.0281551 0.00389684 0 0 0 -7.24118e-07 -7.06814e-07 1.33074e-06 2.88288e-07 -2.6847e-07 2.91291e-07 0.000114961 -9.83863e-05 -2.88991e-05 0.004 625.448 -2.02049 
316 1 1 0.0162833 0.0272928 0.0039063 0 0 0 -6.02542e-07 -1.07815e-06 1.10595e-06 3.17421e-07 -4.28707e-07 2.05196e-07 0.000115743 2.11231e-05 -9.17038e-06 0.004 692.945 -3.47988 
495 1 1 0.0288861 0.0264618 0.00396716 0 0 0 -8.98368e-07 -7.02186e-07 9.41523e-07 4.60647e-08 -3.78412e-07 3.34013e-07 0.000126675 -5.09266e-05 2.0968e-05 0.004 757.357 -3.33045 
863 1 1 0.0367263 0.0277633 0.00392936 0 0 0 -5.79544e-07 -3.70392e-07 4.82701e-07 -2.16351e-08 -1.89154e-07 1.33247e-07 4.88969e-05 -4.49371e-05 -1.8603e-05 0.004 775.878 -2.75299 
511 1 1 -0.00761835 0.0327132 0.00388553 0 0 0 -5.87198e-07 7.29782e-08 3.6662e-07 5.48786e-07 -1.16281e-07 2.40375e-07 -2.82533e-05 -0.000154326 -6.20975e-05 0.004 485.12 1.90478 
722 1 1 0.00164033 0.0322874 0.00396635 0 0 0 -6.49849e-07 -4.17339e-07 7.79629e-07 3.37626e-07 -1.19152e-07 1.98586e-07 0.000108695 -0.000194742 -8.7901e-05 0.004 566.103 -0.379973 
2 1 1 0.0229311 0.031696 0.00396243 0 0 0 -8.82094e-07 -5.8259e-07 1.04846e-06 4.58054e-08 -1.83065e-07 2.44054e-07 3.02146e-05 -0.000112901 2.00184e-06 0.004 726.767 -4.01032 
254 1 1 0.0304892 0.0344052 0.0039815 0 0 0 0.000481608 -0.000706171 -2.23384e-11 -1.39285e-15 2.04272e-15 2.55918e-11 0.176952 0.120681 -0.0211551 0.004 798.547 0 
257 1 1 -0.0296322 0.0352231 0.00395613 0 0 0 -3.94303e-07 6.96997e-08 9.30299e-08 1.4887e-07 8.93362e-08 -2.39126e-08 4.73925e-06 -7.92342e-05 -7.22201e-05 0.004 334.374 3.52996 
582 1 1 -0.0157655 0.0356206 0.00393205 0 0 0 -6.95406e-07 -2.5013e-07 3.97205e-07 3.14556e-07 -2.68539e-07 -8.30575e-08 3.47576e-05 -0.000161592 -0.000104199 0.004 378.807 4.41685 
255 1 1 -0.00267125 0.038932 0.00391147 0 0 0 -3.09216e-07 -1.81008e-07 5.89096e-07 2.81019e-07 -7.53222e-08 1.07017e-07 2.55931e-05 -5.32037e-05 -2.22978e-05 0.004 521.189 0.942546 
887 1 1 0.00812084 0.0373183 0.00392889 0 0 0 -5.55618e-07 -7.29163e-07 6.92731e-07 1.75715e-07 -2.67153e-07 1.58249e-07 9.21143e-05 -6.04774e-05 7.47848e-05 0.004 644.221 -3.14036 
719 1 1 0.0157853 0.0351951 0.00398363 0 0 0 -4.02517e-07 -4.97708e-07 6.40282e-07 1.06102e-07 -2.04828e-07 9.86037e-08 -9.96365e-05 2.54256e-07 -6.82045e-05 0.004 694.618 -4.00972 
21 1 1 0.0234243 0.0396338 0.00391497 0 0 0 -2.50913e-07 -2.4984e-07 3.76322e-07 4.64286e-08 -1.32668e-07 3.59599e-08 -2.70585e-05 -3.8607e-05 -8.53684e-05 0.004 729.577 -4.23581 
325 1 1 -0.0222388 0.0402984 0.00393951 0 0 0 -3.04333e-07 2.74546e-08 9.85778e-08 1.88781e-07 3.56055e-08 3.71458e-08 8.83419e-06 -5.28465e-05 -8.06387e-05 0.004 367.011 4.44299 
595 1 1 -0.014931 0.0435393 0.00398254 0 0 0 -1.54408e-07 -7.45312e-08 2.24741e-07 2.12466e-07 -9.25674e-08 4.95306e-08 -4.67859e-05 -2.88101e-05 -1.66066e-05 0.004 402.684 4.1978 
568 1 1 0.0162912 0.0430934 0.00392629 0 0 0 -1.35098e-07 -3.02775e-07 2.58205e-07 6.86292e-08 -1.03027e-07 3.22861e-08 3.79552e-05 9.72218e-06 5.57961e-05 0.004 691.228 -3.93539 
387 1 1 -0.00719691 0.045487 0.00389932 0 0 0 -1.00217e-07 -3.72573e-08 3.07901e-07 1.05019e-07 -4.57085e-08 1.60707e-08 -4.15766e-05 -1.45202e-05 -1.10352e-05 0.004 488.096 2.0073 
852 1 1 0.000758888 0.0460615 0.00397617 0 0 0 -1.33306e-07 -6.43474e-08 2.78065e-07 1.16715e-07 -4.3762e-08 3.59378e-08 -6.7038e-05 1.4758e-06 -2.27817e-05 0.004 554.924 -0.169244 
157 1 1 0.00865318 0.0452492 0.00389824 0 0 0 -2.64216e-07 -4.51944e-07 4.2114e-07 1.03181e-07 -1.15633e-07 1.0374e-07 2.88441e-05 -2.30416e-05 -6.04502e-05 0.004 633.932 -2.68182 
400 1 1 -0.024752 -0.0387964 0.00974418 0 0 0 -5.83889e-07 -4.32841e-08 -2.4877e-07 -2.89146e-07 4.92049e-08 3.09939e-07 -4.10637e-05 1.02195e-05 6.52651e-05 0.004 363 4.28306 
606 1 1 -0.000653936 -0.0387266 0.00813891 0 0 0 -1.283e-06 2.72528e-07 1.27532e-06 -6.36679e-07 -2.15547e-07 5.51653e-07 0.00014945 -0.000247127 7.30982e-05 0.004 548.226 0.299782 
724 1 1 -0.0339144 -0.0311598 0.00984801 0 0 0 -5.30239e-07 -1.09961e-07 -5.93507e-07 -8.22991e-08 -3.99074e-09 2.32038e-07 -1.7015e-05 -4.51544e-05 1.3535e-06 0.004 329.475 2.96599 
183 1 1 0.0251947 -0.0311656 0.00751474 0 0 0 -1.66564e-06 -2.17314e-07 2.74109e-06 -6.51422e-07 -2.14043e-07 1.47273e-06 0.000241546 -5.78526e-06 -1.3448e-05 0.004 735.544 -3.93993 
544 1 1 -0.0140218 -0.0253028 0.00874963 0 0 0 -2.23217e-06 1.28212e-07 -2.3953e-08 -8.46241e-07 -6.11464e-07 1.48304e-06 -3.38895e-05 -0.000117081 2.95554e-05 0.004 415.943 3.37055 
29 1 1 -0.00450628 -0.0263793 0.00900727 0 0 0 -2.59704e-06 8.85575e-08 1.66599e-06 -1.0868e-06 -3.79416e-07 1.63009e-06 -0.000112579 -0.000255832 2.56477e-05 0.004 496.405 1.72347 
248 1 1 0.00349901 -0.0278426 0.00763306 0 0 0 -1.88547e-06 1.97172e-07 2.9774e-06 -9.27517e-07 -2.78708e-07 1.33068e-06 0.000447672 1.86875e-05 -9.47757e-05 0.004 587.916 -1.15274 
79 1 1 0.035837 -0.0289489 0.00959646 0 0 0 -9.66886e-07 5.79685e-07 1.68841e-06 -3.04029e-07 6.97317e-08 8.88035e-07 -0.000337085 0.00047838 -0.000132585 0.004 767.549 -3.1383 
291 1 1 -0.00458871 -0.0173975 0.00909522 0 0 0 -2.59605e-06 6.49024e-08 1.30368e-06 -1.05097e-06 -2.00501e-07 1.55211e-06 3.47437e-05 7.0216e-05 6.36607e-05 0.004 507.078 1.1751 
891 1 1 0.00373489 -0.015528 0.00632507 0 0 0 -2.2513e-06 4.02156e-07 2.69799e-06 -5.57521e-07 -3.24809e-07 1.37997e-06 0.000167442 0.000156724 0.000177769 0.004 587.016 -1.03378 
870 1 1 0.0138323 -0.0156364 0.00831015 0 0 0 -4.22118e-06 7.79905e-10 4.80162e-06 -6.9351e-07 -1.64208e-07 2.33566e-06 3.96213e-05 4.32853e-05 -0.00019795 0.004 678.57 -3.23987 
777 1 1 0.034969 -0.018778 0.00771 0 0 0 -3.30406e-07 1.6902e-07 3.71506e-07 -6.57356e-07 -7.60626e-07 2.51898e-07 -0.000567247 0.000547022 -0.000168392 0.004 777.826 -2.52251 
837 1 1 -0.029449 -0.0146727 0.00803325 0 0 0 -1.3356e-06 5.74685e-07 -1.42679e-06 6.19507e-08 -2.41508e-07 5.37295e-07 -3.85938e-07 -0.000162722 9.79899e-05 0.004 332.413 2.68401 
445 1 1 -0.0181359 -0.0138493 0.00995275 0 0 0 -2.38045e-06 1.53431e-06 -5.70879e-07 -9.29707e-07 -1.15608e-06 1.5421e-06 1.505e-05 -8.62699e-05 -4.87995e-05 0.004 385.399 3.35422 
783 1 1 0.00485899 -0.00860657 0.00993767 0 0 0 -4.41927e-06 1.13411e-06 3.78275e-06 -1.3131e-07 -2.00968e-07 1.37272e-06 -8.35353e-05 -0.000203186 0.000318494 0.004 600.769 -1.41197 
615 1 1 -0.0350999 -0.000758712 0.00955182 0 0 0 -1.31873e-06 1.09604e-06 -1.36009e-06 3.97621e-07 -1.57904e-07 1.11631e-07 -8.84039e-05 -9.73899e-05 0.000101871 0.004 317.725 1.90335 
476 1 1 -0.0459522 0.00262139 0.00988978 0 0 0 -4.1939e-07 3.82124e-07 -7.09334e-07 9.55032e-08 -1.15941e-07 3.8785e-08 3.56773e-05 6.52275e-05 2.17387e-05 0.004 305.883 1.08176 
16 1 1 -0.0210456 0.00169438 0.00830926 0 0 0 -1.94313e-06 1.70234e-06 -2.85173e-07 4.81737e-07 -3.53999e-07 1.48798e-07 4.64923e-06 -0.000140166 4.84076e-05 0.004 366.603 3.24056 
303 1 1 0.0459492 0.00350464 0.00962656 0 0 0 -1.23374e-06 -9.38276e-07 1.2876e-06 -1.69837e-07 -6.69804e-07 2.94559e-07 1.30133e-05 0.000291405 0.000160249 0.004 792.959 -1.22243 
523 1 1 -0.0389797 0.0080308 0.00932861 0 0 0 -1.14795e-06 9.18524e-07 -1.48478e-06 1.15872e-07 -1.05147e-07 -1.57919e-07 -0.000125835 -8.23855e-05 7.04416e-05 0.004 312.721 1.64967 
704 1 1 -0.010798 0.00519222 0.00743859 0 0 0 -2.59689e-06 1.59815e-06 1.0566e-06 4.93782e-07 -2.83209e-07 3.01672e-07 -1.04372e-05 -7.0346e-05 -0.000113803 0.004 438.315 2.78114 
454 1 1 0.00101181 0.00715932 0.00933955 0 0 0 -4.00036e-06 4.38888e-07 3.01279e-06 6.36197e-07 -3.55902e-07 3.29947e-07 0.000207549 -0.000132159 -0.000134232 0.004 554.474 -0.0408841 
31 1 1 0.0102165 0.0054759 0.0083259 0 0 0 -4.11513e-06 2.24658e-07 4.40069e-06 8.65853e-07 -3.79351e-07 3.87332e-07 -0.000295946 -0.000119139 -0.000243238 0.004 646.641 -2.47568 
135 1 1 0.0188886 0.0074917 0.00960783 0 0 0 -4.5109e-06 -1.02504e-06 3.70723e-06 8.83043e-07 -1.00485e-06 1.02356e-06 0.000191384 -0.000775865 -0.000163157 0.004 730.044 -3.79039 
712 1 1 0.0281139 0.00743267 0.00998854 0 0 0 -3.90792e-06 -3.20085e-06 4.95451e-06 4.31714e-07 -9.80199e-07 1.33462e-06 0.000714586 -0.000574176 -0.000186772 0.004 762.297 -3.0042 
210 1 1 0.0394934 0.00814607 0.0098988 0 0 0 -2.68571e-06 -1.37455e-06 2.05829e-06 -1.77125e-07 -9.29139e-07 5.33623e-07 -1.06117e-05 -0.000471624 -6.61566e-05 0.004 788.031 -1.6556 
651 1 1 -0.0437987 0.0143398 0.00823566 0 0 0 -4.85414e-07 3.44634e-07 -5.97283e-07 3.47348e-08 -5.73325e-08 -1.40322e-07 1.81948e-05 -1.96025e-06 2.98024e-06 0.004 309.616 1.5012 
621 1 1 0.0437182 0.0147846 0.00900765 0 0 0 -1.31345e-06 -6.21697e-07 1.24016e-06 -1.577e-08 -4.24047e-07 2.46124e-07 -0.000111466 0.00015506 -3.67814e-06 0.004 786.765 -1.77444 
726 1 1 -0.0257657 0.0199972 0.00692824 0 0 0 -9.27864e-07 7.06887e-07 -1.38627e-07 2.43885e-07 1.18919e-07 -8.53796e-08 0.000113898 4.41735e-05 2.07107e-05 0.004 343.887 3.28327 
230 1 1 -0.00847466 0.024595 0.00973775 0 0 0 -1.9095e-06 8.94197e-07 1.02338e-06 4.83867e-07 7.30034e-08 2.67055e-07 0.000159217 -0.000259671 -0.000291535 0.004 475.637 2.21831 
320 1 1 -0.00171266 0.020405 0.00979385 0 0 0 -2.57573e-06 8.15087e-08 2.016e-06 5.81164e-07 5.13984e-08 3.24708e-07 9.52788e-05 -0.000112842 6.37959e-05 0.004 533.113 0.781373 
7 1 1 0.0129211 0.0224303 0.00918517 0 0 0 -2.30731e-06 -1.54041e-06 2.74319e-06 6.63571e-07 -5.83195e-07 5.18754e-07 -0.000181834 -0.00028686 -0.000203906 0.004 670.755 -2.96912 
83 1 1 0.0214164 0.0239651 0.00888425 0 0 0 -1.74072e-06 -1.83022e-06 2.60093e-06 3.20016e-07 -7.36921e-07 6.11244e-07 -0.000134844 -0.000474078 -0.00010816 0.004 732.976 -3.53958 
747 1 1 -0.0337321 0.0313835 0.00974072 0 0 0 -5.41197e-07 3.34038e-07 -5.41868e-08 1.91751e-07 1.57401e-07 -1.80323e-07 3.70635e-05 -9.30962e-05 -1.84563e-05 0.004 331.826 3.06641 
51 1 1 -0.0226192 0.0329654 0.00703451 0 0 0 -8.91075e-07 2.38636e-07 1.34031e-07 2.52271e-07 1.19641e-07 -1.16686e-07 -1.58143e-06 7.4289e-05 -1.84715e-05 0.004 352.973 4.0069 
116 1 1 -0.00940735 0.0391203 0.00809817 0 0 0 -6.02436e-07 -1.34574e-07 4.7836e-07 4.55429e-07 -5.38521e-08 2.82214e-07 9.67124e-05 -6.87405e-05 -9.46232e-05 0.004 476.915 2.27733 
205 1 1 -0.000560454 -0.0460776 0.0110171 0 0 0 -8.49651e-07 1.44197e-07 4.43809e-07 -5.15493e-07 -1.09166e-07 2.43135e-07 2.43577e-05 4.18919e-05 0.00010834 0.004 549.261 0.420906 
836 1 1 0.00737985 -0.0454688 0.0106611 0 0 0 -8.82025e-07 2.58147e-07 1.06493e-06 -4.1867e-07 -4.49457e-08 3.83906e-07 0.000138206 -0.000234981 3.8305e-05 0.004 602.96 -1.71377 
486 1 1 -0.0156916 -0.0402432 0.0103352 0 0 0 -1.02414e-06 -2.62754e-07 6.15675e-08 -8.5959e-07 -4.90754e-08 7.22546e-07 1.45647e-05 -4.07651e-05 1.06373e-05 0.004 407.687 4.2296 
311 1 1 -0.0083681 -0.0439882 0.0106791 0 0 0 -8.2893e-07 -2.4331e-07 6.03123e-07 -5.97564e-07 -5.6557e-07 4.01668e-07 9.06499e-05 -0.000191552 0.00017432 0.004 460.071 4.20176 
447 1 1 0.0180551 -0.0423881 0.0118323 0 0 0 -9.14253e-07 6.07981e-07 1.64526e-06 -4.1105e-07 1.86271e-08 6.60618e-07 0.000143722 0.000165494 -1.36924e-05 0.004 676.949 -3.81164 
538 1 1 -0.0295743 -0.035351 0.0149849 0 0 0 -1.06063e-06 5.43673e-09 -5.04238e-07 -4.59288e-07 -2.90531e-08 5.87234e-07 -7.89859e-05 -5.71498e-05 6.40669e-05 0.004 343.075 3.53363 
279 1 1 0.011155 -0.0385417 0.0114152 0 0 0 -2.09878e-06 5.53091e-07 3.00356e-06 -7.32725e-07 -8.62746e-08 1.14612e-06 4.45815e-05 -9.47487e-05 0.000195585 0.004 638.763 -2.72767 
110 1 1 0.0250464 -0.0386627 0.0117241 0 0 0 -8.92658e-07 6.37018e-07 1.04554e-06 -4.07429e-07 2.0346e-07 6.78666e-07 -0.000111214 0.000165221 3.02517e-06 0.004 717.329 -4.17051 
188 1 1 -0.0179041 -0.0321007 0.0101564 0 0 0 -1.85635e-06 -1.22523e-07 -2.98722e-07 -9.98771e-07 -3.16511e-07 1.1573e-06 -2.94154e-05 -0.000184133 0.000121602 0.004 394.694 3.74745 
810 1 1 -0.0102601 -0.034451 0.0102036 0 0 0 -2.03071e-06 -1.12291e-07 8.31404e-07 -9.83641e-07 -3.66314e-07 1.18569e-06 2.36166e-05 -0.000272953 0.000149074 0.004 448.987 3.06637 
412 1 1 -0.00316744 -0.0328806 0.0133526 0 0 0 -3.40399e-06 -2.95799e-08 2.62037e-06 -1.43021e-06 -4.64596e-07 1.97565e-06 6.55456e-05 -0.000182711 -2.18768e-05 0.004 508.791 1.39149 