ITEM: TIMESTEP
24000
ITEM: NUMBER OF ATOMS
891
ITEM: BOX BOUNDS mm mm mm
-0.05 0.05
-0.05 0.05
0 0.15
ITEM: ATOMS id type type x y z ix iy iz vx vy vz fx fy fz omegax omegay omegaz radius f_Temp[0] f_heatFlux[0] 
199 1 1 -0.00444378 -0.0458158 0.00397435 0 0 0 3.99129e-06 -8.36672e-06 -1.65773e-06 1.40196e-05 -6.60766e-07 -3.68962e-06 0.00101954 -0.000722739 -0.00149465 0.004 416.214 10.4891 
873 1 1 -0.0201484 -0.0414789 0.0039016 0 0 0 8.09196e-07 -1.91488e-06 -3.08771e-06 -2.41322e-06 -4.50416e-07 -2.49983e-06 -0.000190348 0.00060274 -0.000193578 0.004 315.244 6.57035 
485 1 1 -0.0126796 -0.0442534 0.00397264 0 0 0 2.01264e-06 1.5788e-06 -4.97896e-06 1.02947e-05 -8.72601e-06 -1.54127e-06 -0.0015281 0.000650503 -0.000115431 0.004 329.002 10.0352 
850 1 1 0.00335643 -0.0441759 0.00394116 0 0 0 8.98553e-06 -4.26255e-07 -4.63905e-06 -1.15298e-06 -4.42917e-06 -2.63016e-06 -0.000723759 0.00153565 0.00564563 0.004 580.891 -13.2636 
186 1 1 0.0114401 -0.0445988 0.00392827 0 0 0 8.75853e-06 -1.75445e-06 1.80297e-07 -3.46545e-06 7.13431e-07 -1.75685e-06 0.000366922 0.00237177 -0.0010176 0.004 739.904 -14.1001 
560 1 1 0.018969 -0.0420006 0.00394676 0 0 0 4.64759e-06 -2.19107e-06 -6.87186e-07 -1.79247e-06 -7.45666e-07 -2.3844e-06 0.000318742 -0.00116891 -0.000230023 0.004 771.354 -9.7447 
102 1 1 -0.0147501 -0.0357331 0.00386312 0 0 0 3.13932e-06 -6.63478e-06 -8.45319e-06 -2.17926e-06 -3.92104e-06 -1.45657e-06 0.000649326 0.000565883 -0.000447443 0.004 339.851 10.2115 
88 1 1 -0.0073076 -0.0383837 0.00392728 0 0 0 3.94311e-06 -5.03461e-06 -6.07706e-06 1.8665e-06 -7.52557e-07 -2.6116e-06 0.000333832 -0.000630484 0.000546987 0.004 393.589 12.3553 
776 1 1 0.00520387 -0.0354368 0.00395024 0 0 0 8.88477e-06 -1.07603e-05 -3.66311e-06 -2.68234e-06 -8.10403e-06 -3.12762e-06 0.00281663 -0.00102214 0.000337274 0.004 634.3 -4.88662 
410 1 1 0.0130237 -0.0368131 0.00392572 0 0 0 1.18521e-05 -5.57179e-06 -1.06552e-06 -6.62522e-06 -1.74513e-07 -2.83802e-06 0.000605628 0.00218246 0.00036749 0.004 734.754 -11.7789 
282 1 1 0.025876 -0.0381319 0.00388527 0 0 0 5.95761e-06 -8.05519e-07 -1.57886e-06 -4.61215e-06 -4.68373e-06 -2.71553e-06 -0.000379294 0.00170897 -0.000380213 0.004 792.316 -4.0667 
682 1 1 -0.0302016 -0.0348779 0.00393465 0 0 0 1.00924e-06 -7.47643e-07 -8.20946e-07 -4.60568e-07 2.10589e-06 -1.37431e-06 -0.000240607 8.07433e-05 9.45322e-05 0.004 302.846 1.77205 
251 1 1 -0.0224189 -0.0338476 0.00392333 0 0 0 3.66271e-06 -2.81492e-06 -4.33936e-06 -6.17321e-07 1.19763e-06 -2.45464e-06 9.72441e-05 0.000980576 -0.00103598 0.004 312.168 5.32237 
770 1 1 -0.00204752 -0.0321408 0.00393965 0 0 0 8.3408e-06 -1.14583e-05 -4.79014e-06 -1.73533e-06 -6.62764e-06 -3.6569e-06 0.00135805 0.000211826 0.000650525 0.004 523.759 7.55056 
883 1 1 0.018166 -0.0307535 0.00390022 0 0 0 1.03399e-05 -4.0767e-06 -3.37871e-06 -6.57002e-06 -5.61002e-06 -7.82636e-07 0.00101016 0.0014398 0.000541611 0.004 771.47 -8.36847 
838 1 1 0.0320336 -0.033109 0.00396072 0 0 0 5.34126e-06 -2.66014e-06 -3.83405e-06 -6.31106e-06 -4.00102e-06 1.56296e-06 0.000239671 -0.000158243 -0.00054843 0.004 797.876 -1.47999 
617 1 1 -0.0372521 -0.0271215 0.00391646 0 0 0 9.56554e-08 -1.82802e-06 1.10114e-07 1.05039e-06 1.9114e-06 7.61706e-07 -4.20286e-05 4.18093e-05 -0.00022852 0.004 300.296 0.281777 
824 1 1 -0.0292998 -0.0270299 0.00392985 0 0 0 9.45231e-07 -4.49088e-06 -2.5279e-06 3.66523e-07 2.02044e-06 -3.27264e-06 0.000658602 0.000506793 -0.00025324 0.004 301.346 1.00105 
571 1 1 -0.0202615 -0.0262215 0.00393286 0 0 0 8.33727e-06 -5.01023e-06 -6.01625e-06 4.84506e-06 2.08892e-06 -4.48067e-06 0.000544022 0.00223638 0.000734907 0.004 310.177 4.81738 
861 1 1 -0.00959292 -0.0297305 0.00389699 0 0 0 8.88488e-06 -1.22006e-05 -8.94218e-06 2.79653e-06 -3.80968e-06 -1.6891e-06 0.00123896 0.000916773 -0.00128874 0.004 383.273 14.4203 
434 1 1 0.0103455 -0.0293807 0.00393742 0 0 0 1.1698e-05 -8.51707e-06 -5.62433e-07 -1.07318e-05 -2.28285e-06 -4.77656e-06 -0.000371542 0.00109624 0.000213786 0.004 713.433 -11.5127 
103 1 1 0.0311547 -0.0252347 0.00394362 0 0 0 7.82951e-06 -4.78142e-06 -6.46156e-06 -1.01986e-05 -6.20315e-06 2.31859e-06 -0.000520009 0.000696563 -0.000192598 0.004 798.146 -1.22334 
769 1 1 -0.041344 -0.0202818 0.0039823 0 0 0 4.63192e-07 -2.66158e-06 -1.26205e-06 7.03293e-07 8.0052e-07 3.8756e-07 -0.000127755 0.00024695 -0.000401946 0.004 300.085 0.0918679 
94 1 1 -0.0333714 -0.0202163 0.0039437 0 0 0 1.20458e-06 -4.88255e-06 -6.19122e-07 2.99505e-06 3.13229e-06 1.70553e-06 0.00024941 -0.000211158 -0.000148023 0.004 300.626 0.504432 
40 1 1 -0.025401 -0.0201464 0.00391762 0 0 0 2.86104e-06 -8.36053e-06 -9.31862e-07 3.69285e-06 3.23381e-06 -1.54206e-06 0.000618774 0.000844832 0.000152137 0.004 303.405 2.03186 
19 1 1 -0.0086507 -0.0218804 0.00393967 0 0 0 1.64857e-05 -1.51905e-05 -3.40083e-06 4.74639e-06 4.34588e-07 -6.00084e-06 0.00220467 0.0032944 -0.000281451 0.004 381.592 15.3748 
442 1 1 -0.000436942 -0.02185 0.00393584 0 0 0 1.67075e-05 -2.03996e-05 -5.96697e-06 2.7662e-06 6.42367e-06 -6.19968e-06 0.00498561 0.00235233 0.000866795 0.004 524.584 11.647 
259 1 1 0.00753194 -0.0220001 0.00392512 0 0 0 1.26841e-05 -1.38262e-05 1.45668e-07 -8.1972e-06 3.48822e-06 -1.02308e-05 0.00182557 0.000686603 0.000807017 0.004 685.19 -8.9821 
512 1 1 0.0153883 -0.0232356 0.00397834 0 0 0 1.13418e-05 -6.69154e-06 -7.13553e-07 -1.11971e-05 -7.54236e-06 -4.46618e-06 0.000839869 0.000402108 0.000376555 0.004 760.817 -8.74713 
470 1 1 0.0232616 -0.0243589 0.00390814 0 0 0 1.01951e-05 -3.73116e-06 -4.46576e-06 -1.13854e-05 -5.7446e-06 -9.6653e-07 0.000883967 0.00146856 -7.57493e-05 0.004 791.142 -3.91048 
451 1 1 0.0390293 -0.0244875 0.00392048 0 0 0 3.32577e-06 -5.80604e-06 -3.14205e-06 -7.05219e-06 -4.71137e-06 4.84517e-07 0.00168798 -0.000500484 0.00087142 0.004 799.6 -0.348412 
531 1 1 -0.0164595 -0.0192005 0.00396127 0 0 0 8.83912e-06 -7.93924e-06 -2.21797e-06 2.99103e-06 3.06345e-06 -7.40859e-06 0.00238453 0.00135718 -0.00237167 0.004 314.666 5.67896 
229 1 1 0.0202059 -0.0169136 0.00386874 0 0 0 1.37116e-05 -6.96887e-06 -3.51913e-06 -1.25174e-05 -3.5116e-06 1.3141e-06 0.000893755 0.00221189 0.000204403 0.004 785.1 -5.76736 
734 1 1 0.0280521 -0.017942 0.00394395 0 0 0 1.00969e-05 -9.44703e-06 -8.94619e-06 -9.24077e-06 -7.11172e-06 6.21833e-06 0.00111613 0.000730256 -0.000537132 0.004 797.103 -1.66875 
635 1 1 0.0425981 -0.0174495 0.00392191 0 0 0 3.48717e-07 -1.86305e-06 2.57115e-06 1.08144e-06 2.77733e-07 -1.15484e-06 0.000225964 0.000372907 0.000292429 0.004 799.94 -0.0638064 
87 1 1 -0.0448224 -0.0104639 0.0039142 0 0 0 3.00334e-07 -2.18848e-06 1.08031e-06 2.18223e-07 -6.62503e-07 -2.32348e-07 4.85228e-05 0.000173043 4.85509e-05 0.004 300.016 0.020128 
406 1 1 -0.0373951 -0.013391 0.00396015 0 0 0 1.73372e-07 -6.78218e-06 -2.65071e-06 -3.88601e-07 1.6324e-06 2.4259e-06 0.000504167 0.00020436 5.55649e-05 0.004 300.105 0.107283 
224 1 1 -0.023058 -0.0126019 0.00387961 0 0 0 6.60226e-06 -1.49466e-05 -5.236e-07 -2.31799e-06 1.2317e-05 -4.86645e-07 0.00218948 0.00192068 -0.00149967 0.004 308.457 3.73095 
751 1 1 -0.0102996 -0.0141546 0.00396944 0 0 0 1.49776e-05 -1.57658e-05 -2.72865e-06 -1.23808e-06 4.10719e-06 1.95974e-07 -0.000419183 0.00117765 -0.000217413 0.004 364.584 11.6846 
622 1 1 -0.00273385 -0.011741 0.00388523 0 0 0 1.91853e-05 -1.86458e-05 -7.53004e-06 -1.33114e-06 9.89774e-06 6.45192e-07 0.00287374 0.00211161 0.00126243 0.004 481.237 4.94188 
128 1 1 0.0095107 -0.0106851 0.00388457 0 0 0 1.97422e-05 -9.91228e-06 -8.16192e-07 -6.2059e-06 1.37046e-05 4.13428e-06 0.00201018 0.00238193 0.00481704 0.004 726.19 -11.64 
68 1 1 0.0262808 -0.0102109 0.00395437 0 0 0 1.42693e-05 -1.0051e-05 -8.23954e-06 -8.73201e-06 -1.09269e-05 -1.90835e-06 -0.000173169 0.000618188 -0.0013891 0.004 798.113 -1.27292 
791 1 1 0.0340945 -0.0118531 0.00392802 0 0 0 1.75645e-05 -2.25624e-05 -1.06352e-05 1.25133e-06 -1.66178e-05 -9.65409e-06 0.00701076 0.00376664 -0.00205306 0.004 799.756 -0.223134 
354 1 1 -0.0380748 -0.00550398 0.00392042 0 0 0 -5.11084e-06 -8.89305e-06 -1.8509e-06 -1.94473e-06 3.27441e-06 1.02913e-06 0.00109481 -0.00124257 0.00044771 0.004 300.105 0.105295 
725 1 1 -0.03049 -0.00800533 0.0039252 0 0 0 -5.4153e-07 -8.65052e-06 4.37942e-07 -2.72223e-06 5.99931e-06 -1.9915e-06 0.000140238 6.07469e-05 0.000736856 0.004 300.56 0.45701 
353 1 1 -0.0161288 -0.00879814 0.00391143 0 0 0 9.09806e-06 -1.70925e-05 2.3753e-07 -3.14881e-06 1.24891e-05 2.97744e-07 0.00323999 7.92858e-05 0.00107601 0.004 330.096 8.44873 
391 1 1 -0.00857658 -0.00639751 0.00391357 0 0 0 1.89736e-05 -1.863e-05 -1.15526e-06 -6.19752e-06 8.90971e-06 1.78403e-06 0.00216234 0.00293953 -0.00206904 0.004 389.572 12.6523 
683 1 1 0.0173534 -0.00945628 0.00390985 0 0 0 1.49433e-05 -2.63042e-06 -1.1795e-06 -8.45702e-06 6.66344e-06 2.83442e-07 0.00104974 0.00101571 -0.00337834 0.004 779.799 -6.78805 
690 1 1 0.0385537 -0.00520139 0.00390021 0 0 0 3.83682e-06 -1.27784e-05 7.68542e-07 -3.38104e-06 -1.71867e-05 -3.51071e-07 0.00279681 0.000196095 0.00445291 0.004 799.922 -0.0770202 
10 1 1 0.0449635 -0.00990887 0.003974 0 0 0 4.22114e-06 -1.82597e-06 -1.34662e-06 1.83149e-06 -5.09701e-06 -8.22642e-06 -0.000341972 0.00037516 -0.000973263 0.004 799.985 -0.0182198 
402 1 1 -0.0460169 -0.00264173 0.00392182 0 0 0 -2.2428e-06 -2.30298e-06 1.06802e-07 -1.44222e-06 2.31187e-07 2.38465e-07 0.000206439 -0.00040904 -0.000159057 0.004 300.032 0.0350835 
761 1 1 -0.0294744 -0.000168367 0.00392562 0 0 0 7.1262e-07 -1.38546e-05 -4.70761e-07 -3.89106e-06 8.99364e-06 1.14233e-06 0.00126483 -0.000303906 -0.000726009 0.004 301.741 1.14093 
293 1 1 -0.0229324 -0.00466877 0.0039595 0 0 0 4.62916e-06 -1.81214e-05 2.11072e-06 -3.00889e-06 1.25885e-05 5.42366e-07 0.00118173 -0.000194617 0.000194356 0.004 306.898 3.40474 
384 1 1 -0.0147744 -0.000832575 0.0039815 0 0 0 -0.000883549 0.000686052 1.18867e-11 -1.33383e-15 1.03528e-15 1.62056e-11 -0.171911 -0.221399 0.233621 0.004 300 0 
378 1 1 0.00130613 -0.00490408 0.00392905 0 0 0 2.55077e-05 -1.26292e-05 -1.11198e-08 -4.72626e-06 5.49526e-06 1.69342e-06 0.000868452 0.00389268 -0.000957497 0.004 577.966 -9.42586 
390 1 1 0.0103707 -0.00276533 0.00396885 0 0 0 1.91766e-05 -8.08351e-06 2.23004e-06 -6.29595e-06 1.67817e-05 -1.76123e-06 -0.00168345 0.000820596 -0.00396833 0.004 758.055 -12.3012 
411 1 1 0.0223603 -0.00329284 0.00397624 0 0 0 2.75257e-05 -9.3854e-06 -5.68291e-07 1.1454e-05 -5.05571e-06 -4.71124e-06 0.0020285 0.00623587 -0.000773597 0.004 795.511 -2.45152 
342 1 1 0.0307348 -0.00361663 0.00397529 0 0 0 1.1567e-05 -2.09129e-05 -4.81503e-06 -1.53222e-05 -1.03443e-05 -6.02938e-06 0.00328733 0.00181949 -0.000851043 0.004 799.73 -0.24414 
262 1 1 0.0460221 -0.00206504 0.00395833 0 0 0 5.78732e-06 -3.14214e-06 -2.80402e-06 4.59147e-06 -3.27933e-06 -5.41614e-06 9.82847e-05 -1.3556e-05 9.741e-05 0.004 799.987 -0.0164745 
261 1 1 -0.0398214 0.00224599 0.00393476 0 0 0 -1.26066e-06 -7.34737e-06 4.64229e-07 -3.81528e-06 3.0216e-06 -5.05843e-07 0.000448097 -7.39121e-05 -0.00125898 0.004 300.183 0.15993 
666 1 1 -0.00454673 0.000451392 0.00395604 0 0 0 2.25765e-05 -1.55627e-05 9.97294e-07 -3.90031e-06 1.07292e-05 2.6822e-06 0.000531313 0.00161768 0.00141041 0.004 449.81 10.4328 
815 1 1 0.00434371 0.00243558 0.0039271 0 0 0 2.97801e-05 -1.21738e-05 9.34887e-07 -1.10022e-05 9.52996e-06 -8.02361e-07 0.00213867 0.00501536 0.00105363 0.004 666.312 -15.5555 
306 1 1 0.01637 0.00247667 0.00395809 0 0 0 2.83839e-05 -1.8725e-05 4.08621e-06 8.74885e-06 -2.30082e-06 -8.99876e-06 0.00584035 0.00534593 0.00226218 0.004 788.882 -5.21411 
178 1 1 0.0241042 0.00444177 0.00386113 0 0 0 2.24724e-05 -7.34695e-06 1.20086e-06 9.49407e-06 -2.94598e-06 -3.14228e-06 0.00120921 0.00273344 0.0011486 0.004 796.195 -2.2414 
862 1 1 0.0320656 0.0042337 0.00393096 0 0 0 1.61472e-05 -1.9099e-05 4.82527e-06 9.5473e-07 -1.11549e-05 -1.62701e-06 0.00353986 0.00189321 -0.00178119 0.004 799.397 -0.483575 
661 1 1 0.0398756 0.00291473 0.0039468 0 0 0 7.69358e-06 -1.20454e-05 -2.0104e-06 1.15162e-06 -1.4549e-05 -3.68171e-06 0.00204269 0.000364281 0.00221585 0.004 799.916 -0.0851964 
677 1 1 -0.0453782 0.00788539 0.00393641 0 0 0 4.05073e-07 -2.75019e-06 2.55442e-07 -1.77173e-06 8.12821e-07 -2.88069e-07 0.000336497 -0.000126541 -0.000222868 0.004 300.03 0.0330247 
12 1 1 -0.0333161 0.00671957 0.00393696 0 0 0 3.10968e-06 -1.29459e-05 2.37738e-06 -5.24045e-06 6.51501e-06 -3.22919e-07 0.00155056 -0.000496584 -0.000438348 0.004 300.997 0.682852 
420 1 1 -0.0253999 0.00664834 0.00392686 0 0 0 9.35405e-06 -1.9118e-05 2.21466e-06 -6.6748e-06 9.79168e-06 2.00647e-06 0.00265063 0.00153228 -0.00112272 0.004 305.391 2.62949 
654 1 1 -0.0175134 0.00720942 0.00387211 0 0 0 1.46526e-05 -2.20092e-05 -2.89791e-07 -6.31994e-06 1.25156e-05 3.20277e-06 0.00383041 0.00158477 5.29856e-06 0.004 322.023 6.96932 
145 1 1 -0.00454405 0.00836533 0.0038631 0 0 0 2.31618e-05 -1.56982e-05 8.89793e-07 -8.57324e-06 1.49894e-05 6.3493e-07 0.00224536 0.0046424 0.000409832 0.004 443.002 11.2995 
624 1 1 0.0451449 0.00890655 0.00390656 0 0 0 2.13083e-06 -4.3738e-06 1.04954e-06 -3.9216e-06 -7.3116e-06 8.66134e-07 0.000509845 0.000587102 -0.000344764 0.004 799.973 -0.0310077 
613 1 1 -0.0372991 0.0135339 0.00384343 0 0 0 3.34605e-06 -9.36409e-06 2.44973e-06 -4.09392e-06 3.57914e-06 -4.06185e-07 0.00101586 0.000336331 -0.000496292 0.004 300.251 0.217449 
265 1 1 -0.0293062 0.0135429 0.00396372 0 0 0 7.15653e-06 -1.38701e-05 5.36722e-06 -4.81206e-06 6.12793e-06 -7.77738e-07 -0.000170206 -0.000535292 -0.000530286 0.004 301.727 1.15899 
273 1 1 -0.0213694 0.0141274 0.00392939 0 0 0 1.23467e-05 -1.84718e-05 6.77181e-06 -5.93509e-06 7.61004e-06 -1.06336e-06 0.00187604 0.0016583 0.000592889 0.004 306.841 3.47344 
492 1 1 -0.01145 0.0123712 0.00398079 0 0 0 1.94815e-05 -1.92287e-05 6.79435e-06 -4.00382e-06 1.14035e-05 1.47787e-06 0.00180569 0.0020436 -0.000292705 0.004 345.197 12.4214 
234 1 1 0.00585287 0.0103929 0.0039289 0 0 0 2.65156e-05 -1.16752e-05 -1.61579e-06 -7.63426e-06 8.42734e-06 -1.61211e-06 0.00195998 0.00319808 0.00267661 0.004 638.92 -10.0578 
160 1 1 0.0142843 0.0106356 0.00390957 0 0 0 2.52415e-05 -6.1392e-06 -6.72695e-07 -3.49028e-06 6.6692e-07 -2.67485e-06 0.00155756 0.00286509 0.000106358 0.004 760.324 -10.5217 
484 1 1 0.0220893 0.0120738 0.00390118 0 0 0 1.78691e-05 -6.22877e-06 8.86321e-08 -2.53312e-06 -3.4172e-06 -1.48998e-06 0.000600042 0.00273561 0.000443571 0.004 790.75 -4.07409 
743 1 1 0.0300184 0.0126216 0.00398126 0 0 0 7.16097e-06 -1.45793e-05 -3.43254e-06 -2.50258e-07 -8.52149e-06 -2.49966e-06 0.00392473 -0.000873962 -0.00237833 0.004 797.989 -1.30299 
514 1 1 0.0379537 0.0130186 0.00386905 0 0 0 4.28595e-06 -1.20788e-05 2.42014e-06 2.49775e-06 -8.63094e-06 -3.45347e-06 0.00202692 0.000587355 0.0017416 0.004 799.673 -0.276155 
530 1 1 -0.0159002 0.0198648 0.00392795 0 0 0 1.52265e-05 -1.53938e-05 2.20646e-07 -3.59081e-06 4.79177e-06 2.75294e-06 0.00186571 0.00352912 0.00015501 0.004 317.398 7.11156 
227 1 1 -0.00736501 0.0192083 0.00396594 0 0 0 1.92752e-05 -1.52037e-05 4.41354e-06 -5.36945e-06 1.53913e-05 1.50904e-06 0.00209613 0.00362317 0.00149135 0.004 389.303 15.4792 
392 1 1 -0.000498611 0.0151513 0.00394446 0 0 0 2.00146e-05 -1.26288e-05 1.35918e-07 -5.23448e-06 1.16996e-05 -1.65573e-06 0.00105569 0.000833585 -0.000327641 0.004 504.179 7.66087 
493 1 1 0.0098584 0.0172531 0.00394647 0 0 0 1.94478e-05 -4.44931e-06 1.30079e-06 -2.18878e-06 6.25021e-06 -1.49039e-06 2.74612e-05 0.00118075 -0.000109418 0.004 702.385 -12.4569 
34 1 1 0.0176357 0.0187852 0.00394099 0 0 0 1.79031e-05 -3.21077e-06 -9.73528e-07 -1.81506e-06 -6.44663e-07 -2.10875e-06 0.000340733 0.00206741 7.77312e-05 0.004 767.864 -9.14938 
206 1 1 0.0255397 0.0192353 0.00396992 0 0 0 1.19202e-05 -2.92186e-06 -6.94178e-07 -1.77054e-06 -6.09529e-06 -1.47209e-06 0.000117105 -0.000225097 0.000144818 0.004 792.738 -3.38981 
104 1 1 0.0334175 0.0199346 0.00389649 0 0 0 6.38391e-06 -5.34655e-06 1.68717e-06 -1.58567e-06 -5.85521e-06 -2.11481e-06 0.00124992 0.000619605 -0.000530148 0.004 798.564 -0.961329 
809 1 1 -0.0412058 0.0204949 0.00395497 0 0 0 1.74937e-06 -3.87568e-06 1.86396e-06 -1.34901e-06 8.66159e-07 -5.85484e-07 -2.17075e-05 0.00025214 0.000176496 0.004 300.046 0.0531512 
773 1 1 -0.0331523 0.0204531 0.00393521 0 0 0 4.23574e-06 -1.11198e-05 1.62998e-06 -1.51441e-06 3.81502e-06 9.65728e-07 0.000887125 0.000663243 0.000468693 0.004 300.613 0.507011 
792 1 1 0.00347678 0.0219735 0.00392105 0 0 0 1.66079e-05 -7.58121e-06 5.26923e-06 -1.42767e-06 8.20839e-06 2.16605e-06 0.00124906 0.00180006 0.0011235 0.004 603.07 -5.00847 
718 1 1 0.0413199 0.0203659 0.00392988 0 0 0 2.91485e-06 -4.01379e-06 2.31551e-07 1.85952e-08 -4.08322e-06 -1.84675e-06 0.000441901 0.000287252 0.000354349 0.004 799.741 -0.231571 
101 1 1 -0.0371146 0.0272995 0.00390401 0 0 0 2.1567e-06 -5.8691e-06 2.55659e-06 4.59453e-08 1.95511e-06 -1.7432e-07 0.000666227 5.09396e-05 -0.000581374 0.004 300.242 0.234009 
246 1 1 -0.0290567 0.0272807 0.0039827 0 0 0 4.39145e-07 -8.39159e-06 8.12605e-07 -7.0465e-07 2.83818e-06 2.81763e-07 0.000190464 -0.000136676 0.000767326 0.004 301.09 0.756197 
331 1 1 -0.0212281 0.0257798 0.00390017 0 0 0 6.53805e-06 -1.19189e-05 3.96638e-06 4.50922e-07 5.87104e-06 2.67358e-06 0.00173885 -0.000493206 6.41536e-05 0.004 308.289 3.76047 
846 1 1 -0.0134708 0.0274168 0.0039748 0 0 0 1.1637e-05 -1.23821e-05 5.14729e-06 1.96012e-06 -2.03054e-07 1.98733e-06 0.00246173 0.00260297 0.000372237 0.004 336.754 9.7537 
348 1 1 -0.00329916 0.0260611 0.00393374 0 0 0 1.20422e-05 -8.62206e-06 3.89977e-06 -2.91797e-06 9.68354e-06 9.58764e-07 0.000270091 0.000867861 0.000511046 0.004 477.908 8.01581 
786 1 1 0.00840354 0.028155 0.00389684 0 0 0 1.03445e-05 -2.44246e-06 2.63264e-06 -3.78725e-06 8.72123e-06 -1.44701e-07 0.000252284 0.00152685 0.000515304 0.004 685.642 -12.9189 
316 1 1 0.0162833 0.0272928 0.0039063 0 0 0 1.0047e-05 -2.53652e-06 2.03906e-07 -4.54437e-06 4.36443e-08 -1.91968e-06 0.000716268 0.000827269 0.000138755 0.004 766.735 -9.09543 
495 1 1 0.0288861 0.0264618 0.00396715 0 0 0 6.54567e-06 -8.79404e-07 1.49725e-06 -3.51346e-06 -5.29488e-06 1.43599e-06 -0.00062707 0.000247065 -0.000102255 0.004 797.659 -1.55565 
863 1 1 0.0367263 0.0277633 0.00392936 0 0 0 2.56976e-06 -1.39525e-06 9.27931e-07 -1.50585e-06 -2.29544e-06 -5.75488e-07 0.000421782 0.000351259 0.000419303 0.004 799.613 -0.347413 
511 1 1 -0.00761834 0.0327132 0.00388553 0 0 0 9.15532e-06 -8.69629e-06 4.46452e-06 -4.66633e-06 5.75934e-06 -8.87462e-07 0.00108184 0.00154301 0.000642231 0.004 421.802 13.7227 
722 1 1 0.00164034 0.0322874 0.00396635 0 0 0 7.55491e-06 -3.98616e-06 2.39006e-06 -6.86466e-06 4.5686e-06 7.56845e-07 -0.000136607 0.000211008 0.000393258 0.004 586.086 -7.80927 
2 1 1 0.0229311 0.031696 0.00396243 0 0 0 6.99996e-06 -2.14905e-07 3.71943e-07 -4.22072e-06 -1.95657e-06 1.14582e-06 -7.37516e-05 0.00123739 0.000350307 0.004 791.432 -4.30801 
254 1 1 0.0305146 0.034407 0.0039815 0 0 0 -0.000818632 0.000870518 4.44565e-12 -4.67047e-16 4.98573e-16 -2.01613e-12 -0.218134 -0.205132 -0.0703935 0.004 800 0 
257 1 1 -0.0296322 0.0352231 0.00395613 0 0 0 -1.12815e-06 -7.2626e-06 2.29959e-06 -1.77079e-06 9.32593e-07 -4.61564e-08 0.00124897 -0.000755765 -0.0014693 0.004 300.814 0.658629 
582 1 1 -0.0157655 0.0356205 0.00393204 0 0 0 1.45699e-06 -1.07819e-05 3.56395e-06 -2.49218e-06 1.22888e-05 3.84332e-06 0.00235792 0.000399217 -0.000298254 0.004 309.608 4.53328 
255 1 1 -0.00267124 0.038932 0.00391148 0 0 0 3.81257e-06 -4.70945e-06 1.98251e-06 -7.80508e-06 2.34607e-06 2.5186e-07 0.00062676 0.00065925 0.000622526 0.004 492.125 5.80645 
887 1 1 0.00812085 0.0373183 0.00392889 0 0 0 4.23885e-06 -1.90533e-06 2.91127e-07 -9.21906e-06 3.61557e-06 -4.74311e-07 0.000276018 0.00106506 -0.000123696 0.004 735.12 -14.4861 
719 1 1 0.0157853 0.0351951 0.00398363 0 0 0 4.1003e-06 -1.60264e-06 9.71362e-07 -4.06163e-06 -7.84138e-07 1.11751e-06 -0.000192897 -0.000526348 0.000775493 0.004 778.711 -8.46852 
21 1 1 0.0234243 0.0396338 0.00391497 0 0 0 1.41925e-06 -1.26247e-06 1.36357e-06 -2.21342e-06 -1.4074e-06 -5.06203e-08 0.000290149 7.70168e-05 0.000331283 0.004 792.954 -3.66709 
325 1 1 -0.0222388 0.0402984 0.00393951 0 0 0 -1.05865e-06 -5.39651e-06 8.84377e-07 -1.90915e-06 3.54719e-06 -1.01799e-06 0.00064075 -0.000730653 -0.000602116 0.004 305.411 2.97958 
595 1 1 -0.014931 0.0435393 0.00398255 0 0 0 9.78769e-07 -3.77799e-06 3.34493e-06 -3.09103e-06 4.09907e-06 -2.65329e-06 -0.000845099 0.000393935 0.000231868 0.004 327.809 7.45843 
568 1 1 0.0162912 0.0430934 0.00392629 0 0 0 1.06149e-06 -6.30696e-07 7.58513e-07 -3.13354e-06 -9.488e-08 6.78789e-07 -4.11988e-05 3.68374e-05 -0.000115151 0.004 772.643 -8.83218 
387 1 1 -0.00719691 0.045487 0.00389932 0 0 0 8.71723e-07 -3.15913e-06 9.6143e-07 -1.54609e-06 1.75258e-06 9.58428e-07 0.000174082 4.0255e-05 0.000267587 0.004 429.368 11.5375 
852 1 1 0.000758889 0.0460615 0.00397617 0 0 0 9.16999e-07 -1.43613e-06 7.89159e-07 -5.70823e-07 3.18952e-07 4.16969e-07 -0.000134693 0.000178328 0.00018166 0.004 577.267 -9.65281 
157 1 1 0.00865318 0.0452492 0.00389824 0 0 0 1.51926e-06 -7.55947e-07 2.64659e-08 -1.86744e-06 2.33553e-06 1.06237e-09 0.000106523 0.000148269 0.000351824 0.004 712.489 -14.104 
400 1 1 -0.024752 -0.0387964 0.00974419 0 0 0 1.24487e-06 -2.77751e-06 -3.51556e-06 -4.27211e-06 -2.20864e-06 -5.54805e-06 -9.87605e-05 -0.000644807 0.000401884 0.004 304.271 2.67195 
606 1 1 -0.000653904 -0.0387266 0.00813892 0 0 0 9.82481e-06 -1.32992e-05 -1.21003e-05 -1.03217e-05 2.04804e-06 1.65246e-06 0.000703709 0.00261509 -0.00263364 0.004 531.475 5.3368 
724 1 1 -0.0339143 -0.0311598 0.00984801 0 0 0 -5.4252e-07 -3.46556e-06 2.55515e-07 2.28289e-06 3.96597e-06 -1.809e-07 0.0007563 -0.000345892 5.92805e-05 0.004 300.791 0.627005 
183 1 1 0.0251947 -0.0311656 0.00751473 0 0 0 1.33031e-05 -1.53709e-06 -7.47161e-06 -1.192e-05 -1.21301e-05 -6.8233e-07 -0.000728734 0.000619013 -8.53094e-05 0.004 793.044 -3.41066 
544 1 1 -0.0140217 -0.0253029 0.00874966 0 0 0 1.85599e-05 -1.60602e-05 -1.2591e-05 4.90935e-06 5.09228e-06 -6.52414e-06 0.00113347 -0.000103429 -0.00217524 0.004 338.761 10.4617 
29 1 1 -0.00450624 -0.0263794 0.00900728 0 0 0 2.54845e-05 -2.97086e-05 -1.9864e-05 3.29041e-06 -3.89493e-07 2.00288e-06 0.000720645 0.00188482 -0.00257083 0.004 430.362 15.6854 
248 1 1 0.00349905 -0.0278426 0.00763307 0 0 0 1.49929e-05 -1.79202e-05 -2.24193e-06 -1.06808e-05 -3.43375e-06 -5.25927e-06 0.00161732 0.000490689 -0.000180254 0.004 627.526 -10.3054 
79 1 1 0.035837 -0.0289489 0.00959645 0 0 0 7.69503e-06 -5.44091e-06 -7.02222e-06 -8.35577e-06 -8.82589e-07 1.98261e-06 -0.0012779 0.000107731 0.00055379 0.004 799.125 -0.707449 
291 1 1 -0.00458866 -0.0173975 0.00909524 0 0 0 2.78691e-05 -2.5021e-05 -2.59889e-06 -2.91347e-06 8.67344e-06 -1.79686e-05 -0.0019438 -0.00131896 -0.00146474 0.004 473.485 6.1269 
891 1 1 0.00373493 -0.015528 0.00632507 0 0 0 2.11569e-05 -2.22638e-05 -4.39345e-06 -1.79896e-06 8.5907e-06 -4.21364e-06 -0.00181595 -0.00198702 -0.00172599 0.004 615.731 -5.98532 
870 1 1 0.0138324 -0.0156364 0.00831014 0 0 0 3.16382e-05 -8.33708e-06 -3.8807e-06 -1.99822e-05 1.81684e-06 -1.66987e-06 0.00077272 0.000465359 -0.00166643 0.004 757.997 -11.2118 
777 1 1 0.034969 -0.018778 0.00771002 0 0 0 1.65916e-05 -8.69469e-06 -1.6763e-05 3.63526e-06 -2.72739e-06 -1.26921e-05 -0.00854303 0.00303262 -0.00228314 0.004 799.52 -0.379233 
837 1 1 -0.029449 -0.0146728 0.00803327 0 0 0 4.04505e-06 -1.15799e-05 2.54564e-06 1.5654e-06 1.19558e-05 -1.94652e-06 0.000535915 0.000136827 -0.000954212 0.004 301.865 1.16663 
445 1 1 -0.0181358 -0.0138494 0.00995276 0 0 0 1.94532e-05 -2.89285e-05 -8.36147e-06 -6.77124e-06 2.29641e-05 -5.08575e-06 0.00143599 0.00301614 0.000340857 0.004 320.123 6.62485 
783 1 1 0.00485906 -0.0086066 0.00993766 0 0 0 4.48626e-05 -3.15077e-05 -4.81876e-06 -1.53061e-05 1.27003e-05 8.2844e-06 0.0029188 0.00229379 -0.0041872 0.004 648.699 -11.516 
615 1 1 -0.0350999 -0.000758769 0.00955181 0 0 0 -3.1805e-06 -2.49755e-05 2.11608e-07 -7.02414e-06 1.43213e-05 1.22835e-07 0.002068 0.000613731 -0.00167619 0.004 300.478 0.371315 
476 1 1 -0.0459521 0.00262138 0.00988978 0 0 0 -1.86467e-06 -5.10089e-06 1.79016e-07 -2.35993e-06 1.23769e-06 8.58084e-07 0.000103519 -0.000279885 -0.000391996 0.004 300.013 0.0165047 
16 1 1 -0.0210455 0.00169431 0.00830924 0 0 0 1.23872e-05 -3.29368e-05 6.83942e-07 -7.97151e-06 2.32624e-05 4.56928e-06 -6.28958e-05 -0.0002337 -0.00115539 0.004 310.682 4.55686 
303 1 1 0.0459492 0.00350467 0.00962655 0 0 0 3.18452e-06 -1.05004e-05 -8.82217e-08 2.11327e-06 -2.16138e-05 -1.4245e-06 0.00117683 -0.000515163 0.0016204 0.004 799.98 -0.0244016 
523 1 1 -0.0389797 0.00803077 0.00932859 0 0 0 2.42996e-06 -1.70968e-05 3.43192e-06 -6.59291e-06 7.53357e-06 -4.04374e-07 0.00146427 -0.000141323 -0.00116534 0.004 300.17 0.152532 
704 1 1 -0.0107979 0.00519215 0.00743859 0 0 0 2.90066e-05 -3.48544e-05 -3.48101e-06 -6.64848e-06 2.21212e-05 2.64893e-06 0.00332661 -0.00143931 0.00109059 0.004 365.293 11.1889 
454 1 1 0.00101185 0.00715925 0.00933954 0 0 0 4.57091e-05 -2.18287e-05 -3.11675e-06 -1.04326e-05 2.07222e-05 3.04905e-07 -0.00115771 -0.000254193 -0.00113728 0.004 555.514 -0.612074 
31 1 1 0.0102165 0.00547587 0.00832589 0 0 0 5.49219e-05 -1.54041e-05 -1.17731e-05 -9.42872e-06 1.24348e-05 -8.25553e-06 0.00117285 0.00336973 0.0016461 0.004 718.087 -13.1029 
135 1 1 0.0188886 0.00749171 0.00960782 0 0 0 4.55034e-05 -1.90878e-05 5.0925e-06 1.13904e-05 -1.23913e-05 -5.89933e-06 -0.000966437 0.00232092 8.2615e-06 0.004 792.013 -4.04224 
712 1 1 0.0281139 0.00743269 0.00998851 0 0 0 3.67654e-05 -1.38715e-05 9.30009e-06 7.97928e-06 -3.25608e-06 -1.09721e-06 -0.00099723 -0.000956367 -0.00515127 0.004 798.211 -1.23576 
210 1 1 0.0394934 0.00814611 0.00989878 0 0 0 1.14399e-05 -1.93327e-05 3.12704e-06 -6.77713e-06 -1.73927e-05 -7.51541e-06 0.000140104 0.00197817 0.000290464 0.004 799.901 -0.101991 
651 1 1 -0.0437987 0.0143398 0.00823566 0 0 0 1.88642e-06 -6.9941e-06 2.30413e-06 -2.85293e-06 2.67053e-06 -8.74623e-07 0.000628086 -0.000274556 -0.000744951 0.004 300.048 0.052839 
621 1 1 0.0437182 0.0147846 0.00900764 0 0 0 5.5282e-06 -8.56319e-06 6.06544e-07 1.31467e-06 -7.42755e-06 -2.30795e-06 0.000257206 0.000201147 0.00148041 0.004 799.845 -0.1413 
726 1 1 -0.0257657 0.0199972 0.00692823 0 0 0 7.01154e-06 -1.80829e-05 2.03412e-06 -2.01259e-06 7.82501e-06 1.02911e-06 -0.00169039 -0.00116128 0.000138151 0.004 302.728 1.72012 
230 1 1 -0.00847466 0.0245949 0.00973773 0 0 0 2.30847e-05 -2.81175e-05 8.37907e-06 2.85919e-06 2.58372e-05 9.64055e-06 0.00149091 0.000769976 0.00310376 0.004 403.481 13.9569 
320 1 1 -0.00171265 0.0204049 0.00979384 0 0 0 3.06655e-05 -2.08248e-05 4.46167e-06 2.66997e-06 2.00291e-05 7.78245e-07 0.00132138 -0.00088304 -0.00111949 0.004 489.045 12.5946 
7 1 1 0.0129211 0.0224303 0.00918518 0 0 0 2.88579e-05 -3.06366e-06 1.05004e-06 -1.07355e-06 5.05675e-06 -5.56622e-06 -0.000527774 0.00168145 0.00154793 0.004 744.115 -11.3935 
83 1 1 0.0214164 0.0239651 0.00888424 0 0 0 2.03352e-05 -4.88311e-06 -4.52348e-08 -8.12926e-06 -7.97095e-06 -2.59459e-07 0.000507111 0.00123901 0.00255649 0.004 790.056 -4.36634 
747 1 1 -0.0337321 0.0313835 0.00974071 0 0 0 2.70076e-06 -1.2395e-05 6.50402e-06 -1.66125e-06 3.851e-06 3.60241e-07 7.44672e-05 -0.000942389 -0.000983938 0.004 300.993 0.756853 
51 1 1 -0.0226192 0.0329654 0.0070345 0 0 0 1.49776e-06 -1.39789e-05 4.69168e-06 -1.25893e-06 7.29846e-06 2.23918e-06 -0.000884714 0.00046161 0.00134814 0.004 303 1.93785 
116 1 1 -0.00940734 0.0391203 0.00809817 0 0 0 5.72371e-06 -1.00761e-05 4.67743e-06 -9.48085e-06 5.81615e-06 -1.25115e-06 -0.000818444 -0.0003876 0.00100175 0.004 401.783 15.6721 
205 1 1 -0.00056043 -0.0460776 0.0110171 0 0 0 4.51612e-06 -7.12182e-06 -1.01874e-05 -1.17372e-05 5.29861e-07 6.83156e-06 -0.00142236 -0.00172554 0.00115031 0.004 495.329 18.2636 
836 1 1 0.00737987 -0.0454688 0.0106611 0 0 0 1.37551e-05 -3.19023e-06 -2.02946e-06 -9.10513e-06 3.5266e-06 -4.2385e-06 0.00179606 -0.00125174 -0.00339134 0.004 657.55 -11.2141 
486 1 1 -0.0156916 -0.0402432 0.0103352 0 0 0 4.47052e-06 -7.95638e-06 -8.94691e-06 -5.94958e-06 -1.13712e-05 -8.72344e-06 -0.000141067 0.0012429 -0.00183951 0.004 323.868 8.42755 
311 1 1 -0.0083681 -0.0439882 0.0106791 0 0 0 2.82414e-06 -2.2519e-06 -1.06822e-05 2.17035e-05 -1.83152e-05 -6.34689e-06 -0.00058575 -0.00125713 -0.00956097 0.004 350.499 14.238 
447 1 1 0.0180551 -0.0423881 0.0118323 0 0 0 1.74435e-05 -6.61161e-07 6.38047e-06 -1.42241e-05 -3.58967e-06 -8.74902e-06 -0.00117568 0.00520146 -0.00189836 0.004 763.563 -10.575 
538 1 1 -0.0295743 -0.035351 0.0149849 0 0 0 3.02607e-06 -5.51811e-06 -3.53477e-06 2.31144e-06 3.08533e-06 -2.19425e-06 0.000116352 0.00149046 -0.000703991 0.004 302.304 1.45951 
279 1 1 0.0111551 -0.0385417 0.0114152 0 0 0 2.38555e-05 -9.41992e-06 5.73585e-07 -1.35223e-05 3.52027e-06 -3.24555e-06 -0.00177931 -0.00201335 0.00189827 0.004 711.234 -12.2126 
110 1 1 0.0250464 -0.0386627 0.0117241 0 0 0 1.41557e-05 -4.64598e-06 -5.64099e-06 -1.16561e-05 -4.03024e-06 -1.76573e-06 0.0013249 -0.00093479 -0.000414595 0.004 788.37 -5.32763 
188 1 1 -0.0179041 -0.0321007 0.0101564 0 0 0 1.01737e-05 -1.15505e-05 -1.51342e-05 -2.33682e-06 5.98084e-06 -3.8333e-06 0.000636103 0.000733324 -0.00110816 0.004 321.478 7.7523 
810 1 1 -0.01026 -0.034451 0.0102036 0 0 0 1.20906e-05 -1.82238e-05 -1.81782e-05 -7.0172e-06 -5.93702e-06 -1.80331e-06 0.00100104 0.0017905 -0.00146899 0.004 370.73 12.3799 
412 1 1 -0.00316737 -0.0328806 0.0133526 0 0 0 2.10754e-05 -2.82916e-05 -2.6406e-05 -1.12501e-05 -7.53928e-07 5.47323e-06 -0.00054783 -6.53529e-05 -0.000642907 0.004 465.405 8.11688 
545 1 1 0.0045206 -0.0343088 0.0121941 0 0 0 2.27486e-05 -2.13128e-05 -1.56095e-05 -9.21557e-06 5.24722e-06 5.23807e-06 0.00069453 -0.00117239 0.00111564 0.004 624.575 -6.69583 