ITEM: TIMESTEP
17600
ITEM: NUMBER OF ATOMS
891
ITEM: BOX BOUNDS mm mm mm
-0.05 0.05
-0.05 0.05
0 0.15
ITEM: ATOMS id type type x y z ix iy iz vx vy vz fx fy fz omegax omegay omegaz radius f_Temp[0] f_heatFlux[0] 
199 1 1 -0.00444375 -0.0458158 0.00397412 0 0 0 -5.27127e-05 3.19671e-05 1.77212e-05 -4.99411e-05 -1.61643e-05 7.65222e-05 0.000735827 0.00628418 0.0155383 0.004 300 0 
873 1 1 -0.0201484 -0.041479 0.00390168 0 0 0 -7.23808e-05 2.03594e-05 -8.89402e-05 -1.01661e-05 5.70254e-05 4.08752e-05 -0.0210585 -0.0113178 0.0136976 0.004 300 0 
485 1 1 -0.0126796 -0.0442534 0.00397254 0 0 0 -3.46358e-05 -7.56332e-06 -3.47474e-05 -6.95213e-05 3.23916e-05 9.38724e-05 0.000815258 0.00227415 -0.00237079 0.004 300 0 
850 1 1 0.00335615 -0.0441756 0.00394042 0 0 0 -0.000128658 -1.42941e-05 3.84465e-05 5.97898e-05 -1.70072e-05 -9.7492e-05 0.00770845 -0.0229247 -0.0352793 0.004 300 0 
186 1 1 0.0114404 -0.0445989 0.00392804 0 0 0 -0.000111272 -1.40486e-05 -2.49802e-05 9.91177e-05 4.31901e-05 -1.70902e-05 -0.00242333 -0.0266866 0.0129063 0.004 300 0 
560 1 1 0.0189689 -0.0420006 0.00394662 0 0 0 -7.92123e-05 -2.00198e-05 -2.30727e-05 2.26447e-05 5.94744e-06 3.53047e-06 0.0123478 -0.000530395 0.00819287 0.004 300 0 
102 1 1 -0.0147503 -0.0357331 0.0038632 0 0 0 -7.82187e-05 4.19902e-06 -0.000157771 3.7208e-05 6.95274e-05 5.35804e-05 -0.0148258 -0.0137734 -0.0127495 0.004 300 0 
88 1 1 -0.00730789 -0.0383835 0.00392697 0 0 0 -8.18757e-05 -1.53239e-05 5.35183e-05 1.26345e-05 -2.40326e-05 -3.15899e-05 0.00173595 -0.039285 0.00183799 0.004 300 0 
776 1 1 0.00520378 -0.0354368 0.00394993 0 0 0 -0.000156355 1.8552e-05 -2.1764e-05 2.05357e-05 -4.00198e-05 9.22319e-05 -0.00915558 0.00290067 0.00770489 0.004 300 0 
410 1 1 0.0130236 -0.0368131 0.00392527 0 0 0 -0.000154997 1.31795e-05 -2.03965e-06 0.0001671 4.8196e-05 0.000161524 -0.00831951 -0.0186673 -0.00192001 0.004 300 0 
282 1 1 0.0258761 -0.0381318 0.00388538 0 0 0 -4.28794e-05 3.23963e-05 -4.8277e-05 -8.27014e-05 7.71188e-05 3.0115e-07 -0.00616713 -0.0061342 0.00703393 0.004 300 0 
682 1 1 -0.0302014 -0.0348781 0.00393477 0 0 0 -3.91645e-05 -1.59367e-06 -4.34696e-05 -1.67269e-05 2.47785e-05 8.42636e-06 -0.00222566 0.00921962 0.00698106 0.004 300 0 
251 1 1 -0.0224188 -0.0338475 0.00392392 0 0 0 -9.3393e-05 5.70299e-07 -0.000172171 4.48204e-07 8.30984e-05 -2.02625e-05 -0.00357493 0.00683008 0.00234892 0.004 300 0 
770 1 1 -0.00204746 -0.0321404 0.00393922 0 0 0 -0.000114566 1.09701e-06 4.68434e-05 1.79997e-06 -0.000181827 0.000136951 -0.00120518 -0.0210503 -0.0249883 0.004 300 0 
883 1 1 0.0181658 -0.0307534 0.00390027 0 0 0 -0.0001896 6.2049e-05 -1.99595e-05 0.000157051 0.000171609 2.23629e-05 -0.00999885 -0.0143871 0.0274717 0.004 300 0 
838 1 1 0.0320337 -0.0331089 0.00396091 0 0 0 -1.12828e-05 5.51455e-05 -7.08052e-05 -5.39019e-05 2.65249e-05 5.11222e-05 -0.0201563 -0.00472658 -0.010755 0.004 300 0 
617 1 1 -0.0372519 -0.0271217 0.00391659 0 0 0 -2.31614e-05 -1.69507e-06 -2.70628e-05 -5.62944e-06 3.27916e-05 3.21997e-05 0.00383506 0.00259228 0.00413787 0.004 300 0 
824 1 1 -0.0292995 -0.0270301 0.00393003 0 0 0 -6.87651e-05 1.1317e-05 -6.69087e-05 -3.03157e-05 1.33825e-05 3.30907e-05 -0.00344769 -0.00642757 -0.00298564 0.004 300 0 
571 1 1 -0.0202614 -0.0262212 0.00393319 0 0 0 -0.000113482 -4.17924e-05 -0.000157261 -1.9231e-05 1.17264e-06 1.94846e-05 0.00732424 -0.0112726 -0.00866884 0.004 300 0 
861 1 1 -0.00959328 -0.0297302 0.00389679 0 0 0 -8.65236e-05 1.77418e-06 -0.000129561 9.28043e-05 1.10021e-05 9.16064e-05 0.00227196 -0.0220379 0.0221092 0.004 300 0 
434 1 1 0.0103456 -0.0293806 0.0039369 0 0 0 -0.0001683 3.86675e-06 -3.37117e-05 5.89513e-05 1.25422e-05 9.67848e-05 0.00462278 -0.0246379 -0.0112408 0.004 300 0 
103 1 1 0.0311548 -0.0252348 0.00394377 0 0 0 -1.24627e-05 5.3772e-05 -0.000109488 -6.40036e-05 4.00588e-05 7.15918e-05 -0.00611658 -0.00800258 0.0130093 0.004 300 0 
769 1 1 -0.0413439 -0.0202819 0.0039824 0 0 0 -1.73234e-05 1.44418e-05 -3.13318e-06 -2.65402e-05 3.52928e-05 -2.87585e-05 -0.00108386 9.75546e-05 0.00147848 0.004 300 0 
94 1 1 -0.0333712 -0.0202167 0.00394369 0 0 0 -3.59801e-05 1.95212e-05 -6.2324e-05 -5.81777e-05 2.19216e-05 -1.81791e-06 -0.00684499 0.00802046 7.26572e-05 0.004 300 0 
40 1 1 -0.0254008 -0.0201463 0.00391759 0 0 0 -5.79608e-05 -3.37217e-07 -0.00010247 -6.14412e-05 2.53456e-05 3.47196e-05 0.00473729 0.00551538 -0.00410537 0.004 300 0 
19 1 1 -0.00865127 -0.0218801 0.00393926 0 0 0 -0.000104926 3.51331e-06 -0.00013688 8.14325e-05 6.70432e-06 0.000183488 -0.00690324 -0.0231309 -0.0214654 0.004 300 0 
442 1 1 -0.000437377 -0.0218496 0.00393509 0 0 0 -9.7188e-05 6.09926e-05 -0.00012467 6.67788e-05 -3.90494e-05 0.000191733 -0.0289279 -0.0119043 -0.0166045 0.004 300 0 
259 1 1 0.00753176 -0.0219998 0.00392462 0 0 0 -8.74961e-05 2.96946e-05 -0.000136548 5.48897e-05 -4.51649e-06 0.000138049 -0.0189781 -0.0154274 -0.0104733 0.004 300 0 
512 1 1 0.0153883 -0.0232354 0.00397816 0 0 0 -9.04129e-05 3.82218e-05 -0.000131363 -5.29237e-05 4.79691e-05 -4.87477e-06 -0.0207232 0.0105865 0.00502364 0.004 300 0 
470 1 1 0.0232616 -0.0243592 0.0039083 0 0 0 -6.97283e-05 2.18442e-05 -0.00014429 3.54227e-08 0.000169425 -8.45879e-05 0.00266939 -0.00843405 -0.0041592 0.004 300 0 
451 1 1 0.0390292 -0.0244873 0.00392063 0 0 0 2.14519e-05 5.28882e-05 -3.67468e-05 -3.11887e-05 9.63069e-05 1.86687e-05 -0.0162921 -0.00505548 -0.00738894 0.004 300 0 
531 1 1 -0.0164595 -0.0192002 0.00396132 0 0 0 -5.15998e-05 -3.61615e-05 -6.62903e-05 -7.62183e-05 -1.55982e-06 5.33946e-05 0.00918173 -0.0123582 -0.000348214 0.004 300 0 
229 1 1 0.0202064 -0.0169136 0.00386871 0 0 0 -7.73143e-05 2.98502e-05 -0.000144365 -0.000184502 1.4914e-05 -2.12607e-05 0.000266274 -0.00943741 -0.00415009 0.004 300 0 
734 1 1 0.0280529 -0.0179423 0.00394406 0 0 0 -6.25115e-05 -4.25612e-06 -8.83174e-05 -0.000111833 0.000102436 -2.81425e-05 0.0138455 -0.0127016 -0.0047017 0.004 300 0 
635 1 1 0.042598 -0.0174493 0.00392201 0 0 0 5.43627e-05 2.01678e-05 -3.23877e-05 2.28067e-05 7.99424e-05 -5.79909e-05 -0.00305475 0.00868977 -0.00571317 0.004 300 0 
87 1 1 -0.044822 -0.0104648 0.00391435 0 0 0 -1.07557e-05 4.21117e-05 -1.89454e-05 -2.43264e-05 3.23554e-05 -1.1447e-05 -0.0102091 -0.00461211 -0.00848976 0.004 300 0 
406 1 1 -0.0373947 -0.0133912 0.00396026 0 0 0 8.94353e-06 2.01311e-05 -1.71363e-05 -2.38262e-05 2.86921e-06 -2.70241e-05 0.00060873 0.00744109 -0.00695258 0.004 300 0 
224 1 1 -0.0230578 -0.0126021 0.00387954 0 0 0 -7.40888e-05 3.54848e-05 -9.8601e-05 -0.000110869 6.67413e-05 -2.14185e-06 -0.00484931 -0.0116275 0.0050987 0.004 300 0 
751 1 1 -0.0102997 -0.0141545 0.0039691 0 0 0 -2.15813e-05 1.19581e-05 -9.88401e-05 -8.61436e-05 2.91326e-05 8.96932e-05 0.00529638 0.0162928 0.00328915 0.004 300 0 
622 1 1 -0.00273401 -0.0117406 0.00388473 0 0 0 -3.90932e-05 2.50917e-05 -0.000119208 -3.51158e-05 -7.80121e-05 0.000182347 -0.00104396 -0.0131558 -0.00368516 0.004 300 0 
128 1 1 0.00951101 -0.0106849 0.00388407 0 0 0 3.87508e-06 8.13272e-06 -0.000101172 -0.000208372 2.80907e-05 8.03974e-05 -0.0062369 -0.00705205 -0.0211762 0.004 300 0 
68 1 1 0.0262818 -0.010211 0.00395423 0 0 0 6.2389e-06 -4.67384e-06 -4.29782e-05 -0.000123375 5.83808e-05 -0.000114573 0.00143924 -0.00430728 -0.00916043 0.004 300 0 
791 1 1 0.0340945 -0.0118585 0.00392806 0 0 0 -2.71918e-05 -3.7945e-06 -7.46215e-06 7.11027e-05 0.000133699 -0.000108702 -0.0139973 -0.0041897 -0.0206553 0.004 300 0 
354 1 1 -0.0380749 -0.00550416 0.00392051 0 0 0 3.74237e-05 2.00139e-05 3.74836e-06 -5.4985e-05 1.02897e-05 -1.77747e-05 -0.00106245 0.00624788 0.0030964 0.004 300 0 
725 1 1 -0.0304903 -0.00800511 0.00392495 0 0 0 3.65424e-05 3.1161e-05 -6.99661e-06 -4.6182e-05 8.85451e-05 5.48827e-06 -0.00500562 0.00625853 0.000713106 0.004 300 0 
353 1 1 -0.0161286 -0.0087982 0.00391126 0 0 0 -3.42314e-05 2.66552e-05 -6.68889e-05 -8.09123e-05 9.10881e-05 2.61466e-05 -0.0102547 -0.00682202 -0.00531816 0.004 300 0 
391 1 1 -0.0085766 -0.00639736 0.00391328 0 0 0 -1.95648e-05 2.08636e-05 -7.40575e-05 -4.58392e-05 6.0339e-06 3.38083e-05 0.00103393 0.00376981 0.00172844 0.004 300 0 
683 1 1 0.0173538 -0.00945636 0.00390977 0 0 0 1.76719e-05 8.5737e-06 -0.000104319 -0.000227251 2.29644e-05 5.45529e-05 0.000285045 0.00205362 0.0118512 0.004 300 0 
690 1 1 0.0385536 -0.00520261 0.00390024 0 0 0 7.78513e-06 4.16424e-05 -6.84146e-05 -6.68901e-05 0.000136959 -9.81261e-05 -0.0111843 -0.00329974 -0.0343264 0.004 300 0 
10 1 1 0.0449637 -0.00990886 0.00397388 0 0 0 -3.72595e-06 -1.09845e-05 -1.30424e-05 -1.83253e-05 4.52479e-05 -3.0668e-05 0.00874515 -0.00773813 0.0128695 0.004 300 0 
402 1 1 -0.0460167 -0.00264245 0.00392191 0 0 0 1.98646e-05 1.85079e-05 -2.01104e-06 -1.89305e-05 3.72732e-05 -1.78829e-05 -0.0016392 0.00363813 0.000183034 0.004 300 0 
761 1 1 -0.0294742 -0.000168359 0.0039257 0 0 0 1.33828e-05 3.06658e-05 -1.59239e-05 -8.33426e-05 8.2583e-05 -2.35118e-05 0.00241148 0.00316487 0.00259551 0.004 300 0 
293 1 1 -0.0229322 -0.00466888 0.00395952 0 0 0 -1.28687e-05 3.47361e-05 -6.02531e-05 -8.25064e-05 0.000114765 -2.38254e-05 0.00323825 0.00294236 -0.0075286 0.004 300 0 
384 1 1 -0.0146329 -0.000941619 0.00398152 0 0 0 -0.000968404 0.000257173 -5.56242e-06 8.72597e-05 0.000366231 -4.13842e-05 -0.0625925 -0.24388 0.229905 0.004 300 0 
378 1 1 0.0013062 -0.00490389 0.00392871 0 0 0 -6.82167e-06 -8.23891e-06 -0.000109552 -8.67863e-05 4.8249e-05 0.000108174 0.0129264 0.00960493 -0.000194889 0.004 300 0 
390 1 1 0.010371 -0.00276525 0.00396847 0 0 0 4.42311e-05 5.40233e-07 -0.000101094 -0.000126987 5.50709e-05 1.73675e-05 0.0174476 0.0150561 0.026985 0.004 300 0 
411 1 1 0.0223609 -0.00329301 0.00397599 0 0 0 4.45897e-05 9.95001e-06 -5.92574e-05 -3.9406e-05 3.37561e-05 -7.4168e-05 0.00266707 -0.00390131 -0.00821308 0.004 300 0 
342 1 1 0.0307351 -0.0036168 0.00397483 0 0 0 4.04512e-07 1.85848e-05 -3.67134e-05 -9.89309e-05 5.47426e-05 -8.3619e-05 0.000286195 0.00307849 0.029352 0.004 300 0 
262 1 1 0.0460222 -0.0020651 0.00395823 0 0 0 -1.19436e-05 9.39245e-06 5.02753e-06 -8.90599e-06 3.59762e-05 -4.21082e-05 -0.00465731 0.00117176 -0.00521678 0.004 300 0 
261 1 1 -0.0398214 0.00224583 0.00393482 0 0 0 2.42174e-05 2.1923e-05 1.33887e-05 -7.59049e-05 2.63043e-05 -3.95189e-05 0.000267594 -0.000508009 0.000941383 0.004 300 0 
666 1 1 -0.00454673 0.000451552 0.0039557 0 0 0 -2.5874e-06 1.44496e-05 -7.23517e-05 -4.53012e-05 4.81712e-05 3.44903e-05 -0.00579427 -0.000951177 -0.00461705 0.004 300 0 
815 1 1 0.00434395 0.00243563 0.00392682 0 0 0 -2.15403e-06 -2.14573e-05 -3.2557e-05 -0.000109946 0.000101846 3.80023e-05 0.00144039 -0.00391433 -0.00719271 0.004 300 0 
306 1 1 0.0163702 0.00247672 0.00395776 0 0 0 1.17968e-05 4.88955e-05 -7.05499e-05 -7.10192e-05 5.17311e-05 -5.88615e-05 -0.0124847 -0.00379992 -0.0259332 0.004 300 0 
178 1 1 0.0241045 0.00444172 0.00386085 0 0 0 5.71751e-06 1.54157e-05 -4.17415e-05 -7.79217e-05 5.65667e-05 -4.67893e-05 -0.0025251 0.00200953 0.0203108 0.004 300 0 
862 1 1 0.0320658 0.00423345 0.00393088 0 0 0 -2.49191e-05 3.21246e-05 -2.77458e-05 -8.6387e-05 5.93606e-05 -4.55553e-05 -0.0023083 -0.00525675 -0.0136057 0.004 300 0 
661 1 1 0.0398756 0.00291457 0.0039467 0 0 0 -1.19565e-05 2.16913e-05 -8.336e-06 -9.94105e-06 1.97971e-05 8.34658e-06 -0.00976771 -0.000249481 0.00362661 0.004 300 0 
677 1 1 -0.0453782 0.00788532 0.00393643 0 0 0 1.31457e-05 1.62532e-05 -3.49345e-07 -3.7839e-05 2.84931e-05 -1.70638e-05 -0.0099527 0.00406549 0.00361306 0.004 300 0 
12 1 1 -0.033316 0.00671951 0.00393701 0 0 0 1.98792e-05 3.42755e-05 2.57043e-05 -0.000100564 4.20462e-05 -6.01667e-05 0.000969986 0.00132737 -0.00182335 0.004 300 0 
420 1 1 -0.0253998 0.00664825 0.00392683 0 0 0 2.0564e-05 2.50293e-05 -9.54423e-06 -0.000105148 0.000110355 8.35054e-06 0.000908006 0.00814123 -0.00374142 0.004 300 0 
654 1 1 -0.0175133 0.00720942 0.00387191 0 0 0 4.44965e-06 9.51425e-06 -3.532e-05 -8.99327e-05 0.000146524 9.05757e-05 0.00181831 0.000713103 0.000733619 0.004 300 0 
145 1 1 -0.00454391 0.00836539 0.00386274 0 0 0 1.51973e-05 -1.52184e-05 -5.00593e-05 -0.000123339 0.000100366 6.44761e-05 0.00841327 0.0016664 -0.000761709 0.004 300 0 
624 1 1 0.0451449 0.00890643 0.00390659 0 0 0 -2.24295e-05 1.94243e-05 -1.26889e-07 4.63125e-05 2.46965e-05 3.807e-05 -0.00122847 -0.00522834 0.00466018 0.004 300 0 
613 1 1 -0.037299 0.0135338 0.00384348 0 0 0 1.4867e-05 3.10702e-05 1.30608e-05 -8.73885e-05 1.32455e-05 -5.79758e-05 -0.00980076 0.00443197 0.00580173 0.004 300 0 
265 1 1 -0.029306 0.0135429 0.00396377 0 0 0 4.57818e-05 4.16957e-05 2.74229e-05 -0.000155854 2.50401e-05 -8.98462e-05 -0.00191747 0.00313836 -0.00340791 0.004 300 0 
273 1 1 -0.0213693 0.0141273 0.00392939 0 0 0 4.24558e-05 1.64639e-05 3.20676e-05 -0.000152058 8.18306e-05 -4.16842e-05 0.00452247 0.00818237 -0.00708589 0.004 300 0 
492 1 1 -0.0114499 0.0123713 0.00398057 0 0 0 9.49009e-06 -2.8645e-05 -8.62818e-08 -8.07e-05 6.6735e-05 3.76226e-05 0.0132576 0.000904985 -0.000446265 0.004 300 0 
234 1 1 0.00585305 0.010393 0.0039286 0 0 0 -2.88966e-06 -7.19004e-06 -3.5636e-05 -0.000113845 7.67865e-05 4.61098e-05 0.00528102 0.000245294 -0.00395267 0.004 300 0 
160 1 1 0.0142845 0.0106357 0.00390932 0 0 0 -1.94631e-05 -7.47343e-06 -2.71495e-05 -9.15814e-05 0.000111453 -5.40651e-06 0.00522757 -0.00397472 -0.00039317 0.004 300 0 
484 1 1 0.0220894 0.0120739 0.00390101 0 0 0 -2.43843e-05 -1.15689e-05 -1.29658e-05 -4.3853e-05 5.00872e-05 -2.29223e-05 0.00509848 -6.87509e-05 -0.00842763 0.004 300 0 
743 1 1 0.0300185 0.0126217 0.00398125 0 0 0 -2.69677e-05 -7.86728e-05 -2.40035e-05 4.2965e-06 -0.000120377 -1.44555e-05 0.0230484 -0.0028688 -0.00522799 0.004 300 0 
514 1 1 0.0379538 0.0130186 0.00386896 0 0 0 -2.53782e-05 2.98685e-05 1.40291e-05 7.27551e-05 -4.38355e-06 -2.98688e-05 -0.000372551 -0.00384504 0.0248515 0.004 300 0 
530 1 1 -0.0159 0.0198649 0.0039278 0 0 0 2.66098e-05 4.40167e-05 4.20058e-05 -0.000110106 -4.94132e-05 3.71174e-05 -0.00222504 0.000603892 0.0144408 0.004 300 0 
227 1 1 -0.00736487 0.0192084 0.00396575 0 0 0 3.41574e-06 -1.46456e-05 1.92985e-05 -9.65077e-05 1.69716e-05 6.33114e-05 -0.00117217 0.00367608 0.00306474 0.004 300 0 
392 1 1 -0.000498474 0.0151514 0.00394417 0 0 0 4.93902e-06 -1.62656e-05 -1.49314e-05 -9.07528e-05 5.58204e-05 4.75211e-05 0.00236162 0.000330368 0.00351542 0.004 300 0 
493 1 1 0.00985857 0.0172533 0.0039462 0 0 0 1.95807e-06 -2.06093e-05 -5.87853e-06 -5.89893e-05 2.9801e-05 6.61562e-05 0.0022386 -0.000324507 -0.00100837 0.004 300 0 
34 1 1 0.0176358 0.0187854 0.00394076 0 0 0 -1.70196e-06 -3.00914e-05 6.4405e-06 -1.66031e-05 -2.30337e-05 5.58903e-05 0.00776209 -0.000926206 0.00290506 0.004 300 0 
206 1 1 0.0255398 0.0192353 0.00396981 0 0 0 -7.57475e-06 -2.60611e-05 1.72783e-05 1.40183e-05 -2.13131e-05 3.913e-05 0.0033497 0.000913215 -6.78467e-06 0.004 300 0 
104 1 1 0.0334176 0.0199346 0.00389647 0 0 0 -2.90637e-05 -6.47921e-07 4.0666e-05 2.16271e-05 1.68997e-05 -1.70602e-05 -0.000151057 -0.00747314 0.00492575 0.004 300 0 
809 1 1 -0.0412058 0.0204949 0.00395503 0 0 0 -9.57177e-07 9.87514e-06 1.61856e-05 -1.53543e-05 2.43541e-05 -1.23874e-05 -0.00491875 0.00218313 0.000808739 0.004 300 0 
773 1 1 -0.0331522 0.0204531 0.00393527 0 0 0 2.12252e-05 2.7223e-05 3.10947e-05 -0.000103469 1.43152e-05 -7.38401e-05 -0.00933246 0.00684148 0.0133173 0.004 300 0 
792 1 1 0.00347688 0.0219737 0.00392084 0 0 0 6.68635e-06 -2.13049e-05 -6.46623e-06 -4.59857e-05 1.22002e-06 4.87777e-05 0.00254063 0.000791288 -0.00360693 0.004 300 0 
718 1 1 0.0413199 0.0203659 0.00392987 0 0 0 -2.11555e-05 1.56175e-05 2.49472e-05 2.28211e-05 1.92911e-05 -2.92969e-05 -0.00219407 0.00197205 -0.00137065 0.004 300 0 
101 1 1 -0.0371146 0.0272994 0.0039041 0 0 0 9.31633e-06 -1.28913e-05 3.35033e-05 1.88953e-05 6.57507e-05 -5.16531e-05 0.00618979 -0.000352798 -0.00415728 0.004 300 0 
246 1 1 -0.0290565 0.0272808 0.00398267 0 0 0 7.47795e-06 2.82184e-05 3.02623e-05 -0.000119194 -4.45241e-05 1.57988e-05 -0.000650843 -0.0132344 -0.0144641 0.004 300 0 
331 1 1 -0.021228 0.0257799 0.00390008 0 0 0 2.2879e-05 2.1368e-05 6.88682e-05 -5.49299e-05 -4.47035e-05 4.1523e-05 -0.00232932 0.0119623 0.00668054 0.004 300 0 
846 1 1 -0.0134707 0.027417 0.00397465 0 0 0 -6.34393e-06 2.89481e-05 4.49419e-05 -5.20744e-05 -4.97983e-05 4.33219e-05 -0.00470833 -0.00548832 -0.00817921 0.004 300 0 
348 1 1 -0.00329907 0.0260613 0.00393355 0 0 0 1.02863e-05 -2.08175e-05 1.1196e-05 -6.89918e-05 -3.3938e-05 4.17732e-05 0.00259524 0.00316753 -0.000667752 0.004 300 0 
786 1 1 0.00840363 0.0281552 0.00389668 0 0 0 2.81006e-05 -2.21969e-05 -1.55071e-06 -5.29023e-05 -3.91215e-05 3.18303e-05 0.00225486 0.00263071 -0.00179028 0.004 300 0 
316 1 1 0.0162834 0.027293 0.0039062 0 0 0 2.15965e-05 -2.26556e-05 -8.81881e-07 -8.166e-06 -4.40382e-05 1.97526e-05 0.00499854 0.00161937 0.00576317 0.004 300 0 
495 1 1 0.0288862 0.0264618 0.00396711 0 0 0 -1.74915e-05 -1.4201e-05 1.80985e-05 3.01671e-05 6.30114e-06 3.0068e-05 0.00164776 -0.000876765 -0.000712869 0.004 300 0 
863 1 1 0.0367264 0.0277633 0.00392935 0 0 0 -1.07242e-05 -5.79894e-06 1.67952e-05 1.04934e-05 8.67569e-06 5.25047e-06 -0.000798984 -0.000956899 0.000212202 0.004 300 0 
511 1 1 -0.00761831 0.0327133 0.00388543 0 0 0 2.02154e-05 -1.85278e-05 3.31356e-05 -5.21255e-05 -2.45769e-05 9.08955e-06 0.00316298 0.00409778 -0.00323906 0.004 300 0 
722 1 1 0.00164041 0.0322876 0.00396623 0 0 0 2.29839e-05 -2.2879e-05 6.94839e-06 -4.63162e-05 -4.75631e-05 3.32839e-05 0.00255476 0.00241438 0.000553508 0.004 300 0 
2 1 1 0.0229312 0.031696 0.00396237 0 0 0 -3.66771e-06 -3.20175e-06 1.17742e-05 8.60523e-06 1.00407e-05 1.09344e-05 -0.00152 7.41572e-05 -0.00239343 0.004 300 0 
254 1 1 0.0306456 0.0342677 0.00398151 0 0 0 -0.000818549 0.00087104 -9.30866e-06 -4.20974e-06 -1.68787e-05 -9.94167e-06 -0.217809 -0.205184 -0.0703935 0.004 300 0 
257 1 1 -0.029632 0.0352233 0.003956 0 0 0 3.09335e-05 5.45889e-06 4.13717e-05 -9.32066e-05 -7.31512e-05 2.89691e-05 0.00265608 -0.0029313 0.00901851 0.004 300 0 
582 1 1 -0.0157652 0.0356209 0.00393194 0 0 0 4.41581e-05 2.56865e-05 5.97419e-05 -0.00017637 -0.0002139 8.76554e-06 -0.0107935 0.0109642 -0.00256838 0.004 300 0 
255 1 1 -0.00267122 0.0389321 0.00391136 0 0 0 1.26819e-05 -2.54254e-05 3.04611e-05 -1.5047e-05 -4.15807e-05 3.88077e-05 0.00520334 0.00120418 0.000835097 0.004 300 0 
887 1 1 0.00812093 0.0373184 0.00392878 0 0 0 7.46872e-06 -1.27642e-05 7.20092e-06 -4.7255e-05 -5.32577e-05 3.66183e-05 0.00215313 0.0050281 -0.00326987 0.004 300 0 
719 1 1 0.0157853 0.0351952 0.00398356 0 0 0 -5.21893e-06 -1.15588e-05 2.42981e-06 -1.94915e-05 -3.97024e-05 2.07023e-05 -0.000466514 -0.00390777 0.00211711 0.004 300 0 
21 1 1 0.0234243 0.0396338 0.00391496 0 0 0 2.03481e-06 -7.37212e-06 3.65584e-06 -1.04451e-05 -5.26522e-06 2.69504e-06 0.0010266 0.000271993 0.00148677 0.004 300 0 
325 1 1 -0.0222386 0.0402986 0.00393943 0 0 0 2.14699e-05 -8.98908e-08 4.89391e-05 -6.68452e-05 -6.60356e-05 -3.24605e-05 -0.00478271 -0.000839259 0.00672016 0.004 300 0 
595 1 1 -0.0149309 0.0435394 0.00398241 0 0 0 3.33134e-05 1.54806e-05 9.32975e-06 -1.06269e-05 -8.19441e-05 7.78683e-05 -0.0026907 0.00705007 0.00454151 0.004 300 0 
568 1 1 0.0162912 0.0430935 0.00392627 0 0 0 1.49822e-06 -5.26406e-06 5.19396e-06 -1.7326e-05 -2.02065e-05 9.9493e-06 0.000409475 0.00113047 -0.00144482 0.004 300 0 
387 1 1 -0.00719692 0.045487 0.00389926 0 0 0 7.49558e-06 -8.12192e-06 1.57059e-05 1.61968e-05 -1.04271e-05 3.92667e-05 -0.00216216 -0.00143776 -0.00070483 0.004 300 0 
852 1 1 0.000758903 0.0460615 0.00397612 0 0 0 7.2913e-06 -9.57204e-06 1.57026e-05 6.11065e-07 -1.47001e-05 2.18283e-05 -0.00328679 0.0022006 0.000645678 0.004 300 0 
157 1 1 0.00865324 0.0452493 0.00389819 0 0 0 5.36344e-06 -1.32385e-05 1.15395e-05 -3.02002e-05 -3.42467e-05 1.33411e-05 0.00233822 0.000595866 0.0021895 0.004 300 0 
400 1 1 -0.0247516 -0.0387967 0.00974469 0 0 0 -9.65352e-05 -7.65141e-06 -0.000120434 -3.5828e-05 6.05108e-05 6.38418e-06 -0.00355665 0.0142344 0.0200363 0.004 300 0 
606 1 1 -0.000654728 -0.0387267 0.00813799 0 0 0 -6.08348e-05 3.99648e-05 0.000125225 -2.98307e-05 2.3102e-05 -0.000147 -0.00657956 0.0384186 0.0120591 0.004 300 0 
724 1 1 -0.033914 -0.03116 0.00984808 0 0 0 -5.56858e-05 -2.95348e-05 -3.74084e-05 -3.13956e-05 4.15879e-05 4.45754e-05 0.0058631 -0.0078893 -0.00528975 0.004 300 0 
183 1 1 0.0251947 -0.0311657 0.00751565 0 0 0 -9.62918e-05 0.000164076 -0.000164728 -3.14979e-05 7.60612e-05 1.37968e-05 -0.0320108 0.0222112 0.00799498 0.004 300 0 
544 1 1 -0.0140219 -0.0253029 0.00875087 0 0 0 -0.000188423 -2.8884e-05 -0.000311775 9.10442e-05 8.27415e-05 8.84302e-05 -0.0226024 0.00506887 0.00802097 0.004 300 0 
29 1 1 -0.0045072 -0.0263789 0.0090057 0 0 0 -0.000143342 6.20026e-05 -0.000102597 0.000263955 -4.48903e-05 6.37349e-05 0.0141184 0.00564249 0.0290442 0.004 300 0 
248 1 1 0.00349894 -0.0278414 0.00763157 0 0 0 -0.000118088 -4.5991e-05 7.49749e-06 5.99232e-05 -0.000142351 0.00031522 -0.0165012 0.043367 0.0349429 0.004 300 0 
79 1 1 0.0358372 -0.0289485 0.00959696 0 0 0 -4.548e-05 2.11459e-05 -0.000101097 -3.84128e-05 9.94744e-06 6.44324e-05 0.0286212 -0.0400281 0.0044034 0.004 300 0 
291 1 1 -0.00458938 -0.0173967 0.00909436 0 0 0 -2.5187e-05 -1.80897e-05 -0.000274847 0.000251531 -8.7637e-05 0.000421634 0.0118413 0.00998862 0.0131553 0.004 300 0 
891 1 1 0.00373474 -0.0155275 0.00632409 0 0 0 -2.27924e-05 1.3215e-05 -0.000173261 -1.12382e-05 -1.77267e-05 0.000326312 0.0281348 0.020851 0.00724379 0.004 300 0 
870 1 1 0.0138327 -0.0156359 0.00830933 0 0 0 -9.3527e-05 1.4668e-05 -7.95758e-05 -0.00014205 -6.7541e-05 0.000162478 -6.59597e-05 0.0190338 -0.00297566 0.004 300 0 
777 1 1 0.0349674 -0.0187811 0.00771617 0 0 0 -6.07346e-05 -7.2746e-05 -0.00013616 1.97485e-05 0.00019336 -0.00032504 0.0526383 0.00566837 0.0248877 0.004 300 0 
837 1 1 -0.0294491 -0.0146726 0.00803256 0 0 0 -4.98208e-05 -1.79384e-05 -7.24637e-05 -5.23502e-05 6.46153e-05 3.04047e-05 0.0221788 -0.0216893 -0.0167928 0.004 300 0 
445 1 1 -0.0181357 -0.0138508 0.00995276 0 0 0 -7.7222e-05 2.35572e-05 -0.00034105 -9.34558e-05 0.000208388 2.5579e-05 0.0575894 0.0211055 0.031852 0.004 300 0 
783 1 1 0.00485923 -0.00860628 0.00993683 0 0 0 -3.79114e-05 7.05161e-05 -0.000194193 -0.000122261 7.91288e-05 0.000185685 -0.0276735 -0.0112271 0.00486075 0.004 300 0 
615 1 1 -0.0350996 -0.000758864 0.00955182 0 0 0 3.29258e-05 1.30042e-05 8.51383e-06 -0.000132391 6.36169e-05 -5.92964e-05 0.00722525 0.00558412 0.00117864 0.004 300 0 
476 1 1 -0.0459521 0.00262084 0.00988939 0 0 0 2.68873e-05 -5.27925e-06 2.25661e-05 -3.22083e-05 6.03462e-05 -2.88001e-05 0.0152652 -0.00450576 0.000581834 0.004 300 0 
16 1 1 -0.0210452 0.00169419 0.00830914 0 0 0 4.94842e-06 2.42032e-05 -6.4575e-05 -0.000161152 0.000130204 6.88511e-05 0.000256569 0.00144145 -0.00516326 0.004 300 0 
303 1 1 0.0459489 0.00350412 0.00962655 0 0 0 -5.93959e-06 1.33665e-05 -1.35425e-05 2.11538e-05 -4.64408e-05 -1.07435e-05 0.00926277 -0.000362875 0.000141446 0.004 300 0 
523 1 1 -0.0389796 0.00803054 0.00932865 0 0 0 2.33251e-05 3.47885e-06 4.89342e-05 -0.000121688 7.14628e-05 -0.000131887 0.00929932 -0.0040103 0.00318852 0.004 300 0 
704 1 1 -0.0107978 0.00519237 0.00743802 0 0 0 -3.91482e-06 6.24987e-06 -9.04949e-05 -0.000149256 0.00011303 8.26293e-05 0.000507155 0.00238988 -0.00645371 0.004 300 0 
454 1 1 0.00101214 0.00715948 0.00933891 0 0 0 -1.7398e-06 1.07064e-05 -6.72683e-05 -0.000174309 0.000161247 0.000144289 -0.00456028 -0.00416589 0.00193852 0.004 300 0 
31 1 1 0.0102168 0.005476 0.00832528 0 0 0 -3.07719e-05 2.0855e-05 -5.65225e-05 -8.61478e-05 0.000196359 4.847e-05 -0.00774488 -0.00283079 0.00480236 0.004 300 0 
135 1 1 0.018889 0.00749177 0.00960729 0 0 0 -9.87198e-06 -8.49778e-06 -7.14666e-05 -8.79609e-05 0.000127499 -8.68603e-05 0.0120253 -0.00405218 0.0226195 0.004 300 0 
712 1 1 0.0281143 0.00743276 0.00998816 0 0 0 -5.56924e-05 3.21535e-06 -1.40225e-05 -1.44455e-05 8.31698e-05 -6.06164e-05 0.0232207 -0.011534 -0.00563071 0.004 300 0 
210 1 1 0.0394934 0.00814603 0.00989848 0 0 0 -6.01085e-05 6.13279e-05 -2.3204e-05 9.58746e-05 7.86787e-05 5.65169e-07 0.00500619 -0.0200872 -0.00555732 0.004 300 0 
651 1 1 -0.0437987 0.0143397 0.00823575 0 0 0 4.23581e-06 -6.91137e-06 1.54126e-05 -4.22111e-05 3.75213e-05 -5.37764e-05 0.0169079 -0.00539218 0.000139816 0.004 300 0 
621 1 1 0.0437183 0.0147845 0.00900761 0 0 0 -3.42573e-05 4.31785e-05 2.38262e-05 7.08713e-05 5.81849e-05 -3.41695e-05 -0.00199777 0.00521392 -0.00748194 0.004 300 0 
726 1 1 -0.0257655 0.0199973 0.00692828 0 0 0 4.64726e-05 3.31683e-05 5.06919e-05 -0.000156771 -5.91416e-05 -6.22464e-05 0.00199675 -0.0221534 -0.00623878 0.004 300 0 
230 1 1 -0.00847449 0.0245952 0.0097373 0 0 0 -4.57469e-06 -1.11613e-05 4.29898e-05 -7.34568e-05 -6.29285e-05 0.000123989 0.00504049 0.000852353 -0.0175617 0.004 300 0 
320 1 1 -0.00171244 0.0204052 0.00979337 0 0 0 -3.31324e-05 -8.74073e-05 8.45894e-06 -6.37554e-05 -1.66877e-05 0.000149685 0.0204099 -0.00301308 0.00302642 0.004 300 0 
7 1 1 0.0129212 0.0224305 0.00918482 0 0 0 8.00244e-06 -3.09665e-05 5.80032e-06 2.93033e-05 7.33266e-07 7.36353e-05 -0.00402492 -0.00544707 -0.0137472 0.004 300 0 
83 1 1 0.0214166 0.0239653 0.00888404 0 0 0 1.41885e-06 -2.19831e-05 3.05934e-05 5.27308e-06 -1.57373e-05 4.69172e-05 -0.00395694 -0.0106319 -0.0014263 0.004 300 0 
747 1 1 -0.033732 0.0313836 0.00974086 0 0 0 -1.86846e-05 -2.82276e-05 0.000100293 2.79915e-05 -1.40485e-06 -8.13194e-05 -0.0148973 -0.0226313 -0.00869882 0.004 300 0 
51 1 1 -0.022619 0.0329657 0.00703432 0 0 0 3.51344e-05 1.74715e-05 0.000120419 -9.77203e-05 -0.000129127 9.35908e-06 0.00329403 -0.00572839 0.000202692 0.004 300 0 
116 1 1 -0.00940729 0.0391205 0.00809809 0 0 0 3.12596e-05 -4.41962e-05 5.98651e-05 -5.97353e-05 -4.48976e-05 -1.37306e-05 0.000972208 0.00347906 0.00409332 0.004 300 0 
205 1 1 -0.000560946 -0.0460778 0.0110163 0 0 0 -3.69682e-05 1.40635e-05 3.7145e-05 4.07261e-05 -8.93689e-06 7.79318e-05 0.0210032 -0.0660677 -0.00294184 0.004 300 0 
836 1 1 0.00737899 -0.0454689 0.0106594 0 0 0 -0.000117398 3.8902e-07 -9.8494e-06 0.000193212 -0.000142839 -0.000177522 -0.0125673 0.033532 0.0268955 0.004 300 0 
486 1 1 -0.0156949 -0.0402404 0.0103369 0 0 0 5.19635e-05 -0.000147601 -0.000313187 0.000258314 -0.000187197 8.70822e-06 0.086392 0.0800853 -0.00200754 0.004 300 0 
311 1 1 -0.00836842 -0.0439898 0.0106789 0 0 0 -6.6344e-05 0.000160165 -8.03504e-05 -4.71058e-05 9.29585e-06 0.000154135 -0.0469435 -0.00445371 0.0441172 0.004 300 0 
447 1 1 0.0180543 -0.0423882 0.0118319 0 0 0 -5.05834e-05 -1.27502e-05 -0.000189738 0.000196595 -7.72383e-05 0.000126296 -0.0585774 0.0351651 0.0221522 0.004 300 0 
538 1 1 -0.0295738 -0.0353511 0.0149854 0 0 0 -9.43912e-05 -6.29107e-05 -7.56893e-05 -4.07714e-06 -7.15955e-06 -3.16339e-06 -0.00268471 0.0103205 -0.00130972 0.004 300 0 
279 1 1 0.0111539 -0.0385416 0.0114139 0 0 0 -0.000111347 2.4792e-06 2.19862e-05 0.000192243 2.75124e-05 8.37e-05 0.0429847 0.0360778 -0.0306589 0.004 300 0 
110 1 1 0.0250455 -0.0386632 0.0117241 0 0 0 -9.176e-05 1.91284e-05 -0.00022917 0.000180625 5.41952e-05 5.92404e-05 0.0399649 -0.083006 0.0201839 0.004 300 0 
188 1 1 -0.0179036 -0.0321015 0.0101582 0 0 0 -0.000174178 -5.90982e-05 -0.000345401 8.89882e-05 0.000187545 1.82535e-05 0.0228228 -0.0102657 0.00548884 0.004 300 0 
810 1 1 -0.0102612 -0.0344502 0.0102036 0 0 0 -7.08529e-05 1.36888e-05 -0.000244554 0.000231947 3.79938e-05 3.04641e-06 -0.0105283 0.00119533 6.47436e-05 0.004 300 0 
412 1 1 -0.00316852 -0.0328804 0.0133507 0 0 0 1.27738e-05 -1.20734e-06 -0.00015259 0.000412311 8.33042e-05 -2.65665e-05 0.00681094 -0.0167993 0.0101766 0.004 300 0 
545 1 1 0.00451945 -0.0343082 0.0121915 0 0 0 3.02911e-05 2.7669e-05 0.000139517 0.00033799 0.000173192 -0.000124883 0.00805083 -0.0418051 -0.0178622 0.004 300 0 
100 1 1 0.0115056 -0.0305926 0.0117059 0 0 0 -7.41209e-05 8.59995e-05 7.68307e-05 0.000477818 8.79737e-05 -0.000112445 -0.0427524 0.0687313 0.029336 0.004 300 0 
556 1 1 0.0183658 -0.0344775 0.0109246 0 0 0 -0.000114372 2.09868e-05 -0.000224633 0.000308406 5.73184e-05 0.000253533 0.0492026 0.0257309 -0.0217155 0.004 300 0 
32 1 1 0.031134 -0.0339589 0.0134826 0 0 0 -8.80425e-05 8.36558e-05 -0.000138461 2.6525e-05 -8.51716e-05 9.92019e-06 -0.0624355 0.0144258 -0.00968948 0.004 300 0 
5 1 1 -0.0386746 -0.0250106 0.0114411 0 0 0 -6.5026e-05 1.48326e-05 -8.57604e-05 -1.88041e-05 9.722e-05 4.03394e-05 -0.0242401 -0.00188865 0.0144622 0.004 300 0 
415 1 1 -0.0253871 -0.0293591 0.0104092 0 0 0 -0.000218589 -0.000117671 -0.000150013 -4.73338e-05 4.23354e-06 7.99282e-05 0.0298575 -0.00821793 -0.0223881 0.004 300 0 
446 1 1 -0.00968741 -0.0280477 0.0148337 0 0 0 -0.000167338 1.34452e-05 -0.000310098 0.000136375 -1.12543e-05 0.000120193 0.00477048 -0.0205976 -0.000619201 0.004 300 0 
814 1 1 0.0190776 -0.0262836 0.0103728 0 0 0 -0.000319765 0.000350625 -0.000204555 0.000644146 -8.30134e-05 -0.000293979 -0.0815513 -0.0378267 -0.087474 0.004 300 0 
24 1 1 0.0289651 -0.025538 0.0115698 0 0 0 -7.60963e-05 0.000156156 -0.000216798 -3.42705e-05 -0.000130178 0.000147373 0.00169526 -0.00650772 -0.0365949 0.004 300 0 
266 1 1 -0.0293332 -0.0224282 0.0104516 0 0 0 -0.000130942 -3.02083e-05 -8.59573e-05 -0.000206591 4.70517e-06 7.96003e-05 0.0114615 -0.0235937 -0.0135255 0.004 300 0 
487 1 1 -0.0208108 -0.0214234 0.0102409 0 0 0 -0.000221299 -8.04814e-05 -0.000219699 -9.16033e-05 4.17595e-05 3.93522e-05 0.000352052 -0.0358185 -0.0107495 0.004 300 0 
655 1 1 0.00191922 -0.0211536 0.0115783 0 0 0 -2.15863e-05 -6.70024e-05 -0.000155967 0.000322898 -0.000163969 0.000444516 -0.0278277 -0.00979011 -0.0387491 0.004 300 0 
243 1 1 0.0112836 -0.0227125 0.0108915 0 0 0 -0.0002647 4.60598e-05 -7.49532e-05 0.00012912 -0.000125034 0.000241586 -0.00653752 -0.0222169 -0.01949 0.004 300 0 
528 1 1 0.0400463 -0.0227773 0.0122702 0 0 0 2.32806e-05 3.98657e-05 -0.00021739 -1.49582e-05 0.000142578 1.42339e-05 -0.0927334 0.0186201 -0.0258955 0.004 300 0 