ITEM: TIMESTEP
4000
ITEM: NUMBER OF ATOMS
891
ITEM: BOX BOUNDS mm mm mm
-0.05 0.05
-0.05 0.05
0 0.15
ITEM: ATOMS id type type x y z ix iy iz vx vy vz fx fy fz omegax omegay omegaz radius f_Temp[0] f_heatFlux[0] 
199 1 1 -0.00412882 -0.0459977 0.00383664 0 0 0 0.134965 0.0175191 -0.035371 -0.00718377 0.0302895 0.0954896 -6.09788 3.26527 -24.5392 0.004 300 0 
873 1 1 -0.0196498 -0.0417004 0.00388346 0 0 0 -0.0475571 0.0439936 0.021246 -0.059415 0.00275226 -0.0235146 2.39663 -4.04358 -0.160407 0.004 300 0 
850 1 1 0.00292464 -0.0424749 0.00381657 0 0 0 0.171143 -0.102612 0.0331186 -0.0367574 0.022183 0.0488357 6.01123 -0.540802 21.7642 0.004 300 0 
186 1 1 0.0103698 -0.0449206 0.00397834 0 0 0 0.195031 0.0409409 0.0090999 -0.094296 -0.0131025 0.0190928 -6.77885 4.19354 4.65157 0.004 300 0 
560 1 1 0.0178091 -0.0424677 0.00388741 0 0 0 0.163961 0.065268 -0.0211631 -0.0439414 -0.0249322 0.0926313 -7.10992 5.14412 2.15731 0.004 300 0 
88 1 1 -0.0067347 -0.0385784 0.0038402 0 0 0 0.0465342 0.0161841 -0.0200988 0.0716124 -0.0114858 0.055222 15.3922 7.95367 8.56975 0.004 300 0 
838 1 1 0.031007 -0.0341409 0.00397699 0 0 0 0.114579 0.0913234 0.0127271 0.0872218 0.0200222 0.0296404 12.8959 -4.00047 -3.50806 0.004 300 0 
682 1 1 -0.0292676 -0.0356527 0.00392165 0 0 0 0.0194918 0.00812633 0.00438868 -0.139228 0.090348 0.0996356 0.549086 -4.87373 -13.1253 0.004 300 0 
251 1 1 -0.0216295 -0.0339653 0.00399876 0 0 0 0.0234953 -0.0269941 0.0345884 -0.17391 -0.135492 -0.0805234 -3.21683 -6.33542 19.1832 0.004 300 0 
102 1 1 -0.0141197 -0.0360361 0.00412946 0 0 0 0.0183847 -0.0303733 0.0446272 0.00633513 -0.0662556 -0.102361 3.49678 3.43883 -7.29051 0.004 300 0 
776 1 1 0.00488761 -0.0348571 0.00386885 0 0 0 0.0745865 -0.0750326 -0.0111722 0.0695369 -0.00097535 0.0794518 -1.53917 1.59547 16.0684 0.004 300 0 
883 1 1 0.0187633 -0.0334384 0.0038437 0 0 0 0.0590219 0.0155423 -0.12875 0.0718671 0.0167174 0.0336778 -0.706337 5.87257 14.7007 0.004 300 0 
617 1 1 -0.0373404 -0.0270231 0.00395966 0 0 0 -0.102066 0.0596317 0.00960488 0.107076 -0.27244 -0.152169 9.29431 9.91328 -2.81105 0.004 300 0 
824 1 1 -0.0293676 -0.0276707 0.00386863 0 0 0 -0.100576 0.0294224 -0.0223004 -0.0274424 0.0256456 -0.0525764 -2.53538 -13.3217 23.4456 0.004 300 0 
571 1 1 -0.0215787 -0.0261296 0.00386633 0 0 0 -0.0708834 -0.0713085 0.00545459 0.202855 -0.0830419 0.113309 -6.4047 6.91663 -6.65901 0.004 300 0 
861 1 1 -0.0103515 -0.0291186 0.00392426 0 0 0 -0.0661017 -0.00712028 0.00694294 0.1701 -0.140544 -0.0264271 -1.04687 1.56951 13.9099 0.004 300 0 
770 1 1 -0.00260138 -0.031536 0.00394906 0 0 0 -0.0741088 -0.228955 -0.0730158 -0.0221335 0.105236 0.0378394 11.9575 -3.42633 -16.834 0.004 300 0 
434 1 1 0.0117336 -0.0297478 0.0039004 0 0 0 0.0346899 -0.040557 0.0110243 -0.0565653 0.0201818 0.21453 1.65466 2.36128 -6.14872 0.004 300 0 
103 1 1 0.0307695 -0.0263225 0.00381814 0 0 0 -0.0209057 0.0405727 0.0715087 -0.0179383 -0.0457482 -0.162304 -17.6871 1.3627 4.65918 0.004 300 0 
451 1 1 0.0385426 -0.0252983 0.00389232 0 0 0 -0.0116037 -0.0364636 0.0260699 0.0166467 -0.0676145 -0.0931927 -20.4297 12.3128 -0.500302 0.004 300 0 
94 1 1 -0.0344119 -0.019755 0.0038439 0 0 0 0.0127969 -0.00373133 -0.0056379 -0.172193 0.0133046 -0.029323 -7.96797 1.68733 2.40028 0.004 300 0 
442 1 1 -5.47552e-05 -0.0237662 0.00385654 0 0 0 -0.00762383 -0.0116199 -0.0635192 0.235157 0.17693 0.0767665 2.02498 3.3742 18.1875 0.004 300 0 
259 1 1 0.00796306 -0.0227569 0.00380554 0 0 0 0.0285877 -0.00024634 0.0436791 0.0276029 0.185589 -0.0553284 12.5877 4.74428 -9.13223 0.004 300 0 
512 1 1 0.015799 -0.0213026 0.00390861 0 0 0 0.0302668 -0.0346182 0.0255409 0.0282029 -0.176821 -0.000601821 -11.1698 2.66279 -1.99217 0.004 300 0 
470 1 1 0.0231804 -0.0242633 0.00388084 0 0 0 -0.0225571 -0.0906248 0.0566633 -0.00196359 0.120397 -0.0800321 -8.50753 6.45638 11.6831 0.004 300 0 
406 1 1 -0.0399121 -0.0141757 0.0039677 0 0 0 0.00805875 0.00523761 -0.0478318 -0.127982 0.0932136 -0.0122321 0.745866 4.44728 -12.3291 0.004 300 0 
40 1 1 -0.0266832 -0.0202519 0.00380747 0 0 0 -0.00281035 -0.0337913 -0.0554606 0.0858866 -0.051336 0.0523753 -3.90375 -3.46192 -16.0825 0.004 300 0 
531 1 1 -0.0178838 -0.018642 0.00402819 0 0 0 0.064559 -0.0545414 0.0334548 0.0864828 -0.185941 -0.0544597 2.68639 16.1042 0.336075 0.004 300 0 
229 1 1 0.0216342 -0.0158482 0.00382546 0 0 0 -0.0193824 0.016568 0.0441292 0.089828 -0.094584 0.0263793 0.392088 -1.85931 9.12584 0.004 300 0 
734 1 1 0.0293106 -0.0186127 0.00402488 0 0 0 -0.0473739 0.014965 0.019025 -0.0459723 0.000952742 -0.0788806 0.950282 10.0399 9.48805 0.004 300 0 
635 1 1 0.0422006 -0.0184615 0.00380416 0 0 0 -0.0195749 0.000861015 -0.0447467 0.0758259 0.083349 0.28043 -6.28614 -1.76678 0.925679 0.004 300 0 
224 1 1 -0.0235611 -0.0131232 0.00379447 0 0 0 0.0589915 -0.10925 -0.0337762 0.0467423 -0.00506199 0.203283 4.7322 7.53399 -1.16744 0.004 300 0 
353 1 1 -0.0159637 -0.0109485 0.00381567 0 0 0 0.00915081 -0.0373816 0.00982164 -0.170157 -0.0351961 0.1404 1.38496 -14.908 18.2614 0.004 300 0 
751 1 1 -0.00858118 -0.0135099 0.00382671 0 0 0 0.0309651 -0.013242 0.0488236 -0.0893055 0.0179516 -0.0300666 5.7737 5.08792 -17.6136 0.004 300 0 
128 1 1 0.00890002 -0.0103278 0.00377949 0 0 0 -0.0394363 0.0297051 -0.00204269 0.280083 -0.222689 0.178455 -12.4458 -13.7714 1.85288 0.004 300 0 
683 1 1 0.0167245 -0.00972932 0.00383436 0 0 0 -0.043676 0.0437076 0.0719865 0.149152 -0.0290014 -0.0438126 -8.14038 -3.93142 -9.26949 0.004 300 0 
791 1 1 0.0361161 -0.0132511 0.00390498 0 0 0 0.0300688 0.119959 -0.0176473 0.0154808 -0.0867968 0.0598959 -6.77723 5.28973 -32.384 0.004 300 0 
10 1 1 0.0446881 -0.0110898 0.00399445 0 0 0 0.0117801 0.0532593 -0.0309132 0.021765 0.0886195 -0.0180594 24.6418 -4.04258 -4.33909 0.004 300 0 
354 1 1 -0.037635 -0.00656669 0.00385889 0 0 0 -0.0621997 0.0474768 -0.116112 -0.217835 -0.180079 0.00578648 -15.5542 -2.90758 36.8963 0.004 300 0 
725 1 1 -0.0296859 -0.0076277 0.00387587 0 0 0 0.0301846 -0.00468557 0.00687095 -0.150713 0.00401621 0.0182018 0.720144 16.4533 23.014 0.004 300 0 
622 1 1 -0.000836842 -0.0116616 0.00383194 0 0 0 -0.0428861 -0.131254 -0.00312719 -0.0028296 -0.0330509 -0.0538424 7.9348 0.99674 9.58879 0.004 300 0 
390 1 1 0.0132532 -0.00273516 0.00390417 0 0 0 -0.0914971 0.0383315 0.0119169 -0.266017 0.124674 -0.146706 -0.931105 -2.89602 3.73763 0.004 300 0 
68 1 1 0.0282864 -0.0108214 0.0038471 0 0 0 -0.0163388 0.0370766 0.10759 -0.0224506 0.0648313 -0.081153 -11.4684 -5.29421 -5.31593 0.004 300 0 
761 1 1 -0.0276248 -0.000121774 0.00382872 0 0 0 -0.14351 0.0688729 0.00376513 -0.165574 0.0571057 0.0727599 -0.998197 -10.7564 3.05613 0.004 300 0 
293 1 1 -0.0217167 -0.00555664 0.00372745 0 0 0 -0.0847901 -0.0499609 -0.00770426 0.0142982 0.0761319 0.153648 10.5919 -5.23358 5.31906 0.004 300 0 
384 1 1 -0.014596 -0.00205906 0.00390582 0 0 0 -0.0662447 0.0301009 -0.0433171 0.117404 0.239987 -0.0788279 10.337 -9.42157 8.79914 0.004 300 0 
666 1 1 -0.00265189 0.000911006 0.00394877 0 0 0 -0.00300614 -0.000547313 -0.0737241 -0.108567 0.0742802 -0.0826118 2.55001 1.35056 4.78052 0.004 300 0 
690 1 1 0.0369334 -0.0053563 0.00369895 0 0 0 0.371051 0.0674817 0.0388696 -0.260787 -0.270119 0.0353283 -11.5304 0.607493 6.20429 0.004 300 0 
262 1 1 0.0459556 -0.00337822 0.00392332 0 0 0 0.00460754 0.0807479 0.0512829 0.0499585 0.140798 -0.0293712 -6.61067 -1.72067 6.75284 0.004 300 0 
402 1 1 -0.0460388 -0.000961272 0.00391472 0 0 0 -0.043395 0.101023 -0.0063946 0.00327162 -0.0208813 0.17374 12.4744 -4.69875 7.01383 0.004 300 0 
261 1 1 -0.0392468 0.00310961 0.00393987 0 0 0 0.0258064 0.0670783 -0.0281966 0.298716 -0.344467 -0.106673 -5.90169 -4.42541 35.7529 0.004 300 0 
420 1 1 -0.0242702 0.00695459 0.00376602 0 0 0 -0.0864222 0.0300139 0.0341377 -0.163364 -0.0113813 0.188885 -10.7544 -10.3436 -8.47302 0.004 300 0 
815 1 1 0.00509211 0.00259836 0.00378251 0 0 0 0.0255566 -0.0832458 -0.0299371 -0.108798 0.412683 -0.250598 -0.929467 13.9899 -39.4084 0.004 300 0 
306 1 1 0.0181423 0.00343627 0.00376628 0 0 0 0.134112 -0.0825746 -0.0105174 -0.0973527 -0.179128 0.135876 2.33721 19.1507 -12.1486 0.004 300 0 
178 1 1 0.0260735 0.00289882 0.00380611 0 0 0 -0.044859 0.0923604 0.0102562 0.238187 -0.0610761 -0.00932446 -2.45655 -7.01499 -5.90007 0.004 300 0 
862 1 1 0.0334103 0.00597211 0.00386553 0 0 0 -0.00172796 0.012355 0.0438082 0.0237055 -0.0502808 0.0476748 -0.585736 1.3409 -15.482 0.004 300 0 
661 1 1 0.0403041 0.0021178 0.00373949 0 0 0 -0.0533626 0.0213946 0.0393832 0.0763198 0.010993 0.213675 2.78851 -12.7665 7.60641 0.004 300 0 
677 1 1 -0.0455834 0.00754078 0.00384532 0 0 0 0.0509187 0.0269944 -0.0398977 -0.0896847 0.208566 -0.0772728 -4.12501 3.43654 -12.9625 0.004 300 0 
654 1 1 -0.0164762 0.00583781 0.00365921 0 0 0 -0.130629 0.0698991 0.00651618 -0.0859437 0.0802269 0.0222053 3.1756 -6.69545 3.1302 0.004 300 0 
145 1 1 -0.00479709 0.00858675 0.00374687 0 0 0 0.0756033 0.014592 -0.0157278 -0.175424 0.00421547 0.0585021 -3.90016 13.7701 -16.4973 0.004 300 0 
234 1 1 0.00605449 0.0107653 0.00374508 0 0 0 0.378272 -0.233134 0.0910662 0.021816 -0.152094 0.133829 3.72787 11.693 11.7698 0.004 300 0 
160 1 1 0.015392 0.0113062 0.00375679 0 0 0 0.126244 0.0918775 0.0490527 -0.159734 0.073209 -0.114079 6.50507 5.27119 0.644737 0.004 300 0 
613 1 1 -0.0378665 0.0115053 0.0038196 0 0 0 -0.127019 0.216705 -0.0106575 0.0329939 0.34513 -0.218986 -22.5628 -23.519 -1.24861 0.004 300 0 
265 1 1 -0.0293105 0.0131005 0.00372864 0 0 0 -0.0411252 0.0878479 0.049171 0.143884 0.0495659 0.251903 -8.2107 3.70846 6.16846 0.004 300 0 
392 1 1 -0.00047732 0.0152661 0.00389625 0 0 0 0.31996 -0.150287 0.106031 -0.0342776 -0.139098 0.0610085 -2.94505 2.77007 1.70811 0.004 300 0 
484 1 1 0.0231478 0.0101936 0.00381589 0 0 0 0.051774 0.1364 -0.00976827 0.106173 -0.166169 -0.0244013 -3.93096 1.90533 -9.50001 0.004 300 0 
743 1 1 0.0303851 0.0132192 0.00406796 0 0 0 0.0656783 0.0196851 -0.0337708 0.000786891 -0.0677484 -0.0353042 -4.67236 -5.54559 1.1433 0.004 300 0 
514 1 1 0.0382539 0.012207 0.00374329 0 0 0 -0.099191 0.135316 -0.0772827 -0.00521415 -0.408571 0.633799 4.15308 -7.74608 1.21019 0.004 300 0 
809 1 1 -0.0419856 0.0183966 0.00393249 0 0 0 0.074555 0.156882 0.00507688 -0.0497748 -0.103139 0.0828189 -2.40903 3.84904 -3.26904 0.004 300 0 
773 1 1 -0.0336595 0.019551 0.00383336 0 0 0 -0.0113229 0.15373 0.00149729 0.250777 -0.0712636 0.0534492 3.14906 -0.943623 -22.2509 0.004 300 0 
530 1 1 -0.0173981 0.0207108 0.0038692 0 0 0 0.0345663 -0.00545442 -0.00854978 -0.0426565 -0.0506276 0.147002 -7.95348 7.85589 0.0257815 0.004 300 0 
227 1 1 -0.00928347 0.0197072 0.00378349 0 0 0 0.0243054 -0.0141424 -0.0265755 -0.219055 0.00328842 0.151529 -2.06109 13.4923 -6.4002 0.004 300 0 
792 1 1 0.0029249 0.0223459 0.00385831 0 0 0 -0.0172868 0.108113 -0.0663275 -0.0741042 -0.0556773 -0.0185811 -5.72841 2.82428 36.2934 0.004 300 0 
34 1 1 0.0172038 0.0190916 0.00401512 0 0 0 0.0453082 -0.0297029 0.0277663 0.0780978 0.0604082 -0.0245685 -13.7761 9.66464 -3.89935 0.004 300 0 
206 1 1 0.0251238 0.0190571 0.00381144 0 0 0 0.0272352 -0.0213652 -0.153133 0.227418 0.152164 0.136178 4.08742 9.1783 3.1172 0.004 300 0 
104 1 1 0.0345677 0.0198097 0.00383064 0 0 0 -0.00578197 0.0379235 -0.0417287 -0.0462194 0.148533 0.179121 -0.829759 11.1779 5.70407 0.004 300 0 
718 1 1 0.0422665 0.0188597 0.00380558 0 0 0 -0.030142 0.180493 -0.01992 -0.0949221 -0.25259 0.219404 6.52789 -8.67758 -7.833 0.004 300 0 
101 1 1 -0.0385709 0.0255386 0.00399604 0 0 0 0.0227257 0.148975 0.00554404 0.144462 -0.0384612 0.00629898 -1.63413 -2.16128 20.7554 0.004 300 0 
331 1 1 -0.0231514 0.0261844 0.00393212 0 0 0 0.0509885 0.0239614 -0.0467644 -0.00911695 0.0516329 -0.00775367 -3.05325 -1.37967 1.80763 0.004 300 0 
348 1 1 -0.00327081 0.0271728 0.00372409 0 0 0 0.0516818 0.048549 -0.0118861 0.184767 0.245277 -0.0841872 3.36184 6.29869 9.97508 0.004 300 0 
786 1 1 0.00971388 0.0261879 0.00384286 0 0 0 -0.0472755 0.220861 -0.0160278 -0.141979 -0.0897207 -0.147288 -9.36426 -18.8207 -0.720188 0.004 300 0 
863 1 1 0.0371155 0.0273355 0.00390755 0 0 0 -0.050008 0.0589394 -0.039447 -0.0608983 0.0735354 -0.115579 -8.12753 -1.52024 -3.87041 0.004 300 0 
246 1 1 -0.0309132 0.0271958 0.00384949 0 0 0 0.0360085 0.0938959 -0.00176143 0.0968769 0.066354 0.0355881 -11.4366 8.96905 -21.6323 0.004 300 0 
846 1 1 -0.0156195 0.0283108 0.00390473 0 0 0 0.0513785 0.0128656 -0.0378224 -0.0130323 -0.00646232 -0.0349641 20.4584 8.81256 -3.46122 0.004 300 0 
722 1 1 0.00356519 0.0312644 0.00402686 0 0 0 -0.00296205 0.281693 0.0526817 0.00439527 0.0560738 -0.0834248 -18.2202 -19.8597 -13.5498 0.004 300 0 
316 1 1 0.0174727 0.0271542 0.00390217 0 0 0 -0.0285675 -0.048395 -0.103077 -0.0567347 0.113399 -0.229566 4.59116 7.64693 -8.25 0.004 300 0 
495 1 1 0.029367 0.0257295 0.00388987 0 0 0 -0.0321324 -0.0181928 0.044766 0.00660947 0.0420408 0.119145 -5.66559 1.2882 12.2803 0.004 300 0 
257 1 1 -0.0298623 0.0350684 0.00393605 0 0 0 0.0704968 0.0809809 0.0365586 0.0837564 -0.0368501 0.0309691 3.65019 10.2406 9.56094 0.004 300 0 
511 1 1 -0.008968 0.0324989 0.00390051 0 0 0 0.0342381 0.0275064 -0.00828497 -0.0784752 0.099285 -0.15062 2.57695 -5.83174 -7.22715 0.004 300 0 
2 1 1 0.0240664 0.0315234 0.00386678 0 0 0 -0.0699047 -0.0558837 0.0353008 -0.0296293 0.12858 0.204802 7.92706 -13.4468 1.02932 0.004 300 0 
254 1 1 0.0317907 0.0333284 0.003961 0 0 0 -0.0099556 -0.00364057 -0.0108688 -6.04136e-05 -0.050611 0.0528919 5.65446 -1.69962 -5.53821 0.004 300 0 
325 1 1 -0.0224575 0.0403787 0.00390288 0 0 0 0.00129546 -0.0099803 -0.0047826 -0.011435 0.0699737 -0.16171 -9.71552 6.58434 9.02298 0.004 300 0 
582 1 1 -0.0159412 0.0360819 0.00386048 0 0 0 0.0558266 0.0296183 0.0420232 -0.117618 0.00841246 -0.0729655 -1.33281 7.48989 7.48939 0.004 300 0 
255 1 1 -0.00263269 0.0386635 0.00393058 0 0 0 0.0851037 -0.0785346 -0.00898684 -0.0291292 -0.0496921 0.137371 -9.81188 -10.6069 9.96066 0.004 300 0 
887 1 1 0.00880793 0.0376002 0.00392729 0 0 0 -0.0268922 -0.0833135 0.0176785 -0.035456 -0.0141616 -0.0714362 -12.0509 -0.226475 -5.02494 0.004 300 0 
719 1 1 0.0162847 0.0350494 0.00397554 0 0 0 0.051957 -0.0445426 -0.233601 -0.00638641 -0.0611988 -0.11312 4.81985 8.20105 -7.49768 0.004 300 0 
21 1 1 0.023919 0.0394098 0.00384787 0 0 0 0.059926 -0.0454386 -0.024908 -0.131694 0.134929 -0.0624867 9.85389 18.156 8.74664 0.004 300 0 
568 1 1 0.016754 0.0429391 0.00394815 0 0 0 0.0289496 -0.0396212 0.0195575 0.00733892 -0.0149046 -0.0492767 -7.2802 0.254038 -3.87504 0.004 300 0 
387 1 1 -0.00771692 0.0454351 0.0038601 0 0 0 -0.00285221 0.00187364 -0.0271556 -0.0266235 -0.122903 -0.0106819 -1.18339 6.66797 -2.7879 0.004 300 0 
852 1 1 9.57279e-05 0.0461272 0.00393257 0 0 0 -0.0140026 0.00227124 -0.0313201 -0.0405033 -0.134208 -0.136501 -3.13796 -8.99131 0.744121 0.004 300 0 
157 1 1 0.00793343 0.0454545 0.00384024 0 0 0 0.0230362 -0.0209604 -0.0362094 0.0512618 0.0318329 -0.108569 4.30026 0.726347 0.360856 0.004 300 0 
485 1 1 -0.0120975 -0.0444189 0.00405141 0 0 0 -0.00689689 0.00556368 0.0348511 -0.0424585 -0.0134991 -0.0206409 9.73456 -0.622448 -1.10261 0.004 300 0 
400 1 1 -0.0245058 -0.0389314 0.00954637 0 0 0 -0.032726 0.0499193 0.0431679 0.0700795 -0.06545 -0.0859999 -7.11645 -17.6945 -3.9482 0.004 300 0 
410 1 1 0.0120819 -0.0373959 0.00614234 0 0 0 0.086115 -0.015824 -0.0427113 0.0310146 -0.0268398 0.00891394 11.4298 -3.55357 16.0741 0.004 300 0 
282 1 1 0.0247184 -0.0388072 0.00388555 0 0 0 0.134577 0.0781657 -0.0242456 0.0420336 0.0153705 0.130522 -0.612051 -4.67482 5.37753 0.004 300 0 
810 1 1 -0.00960097 -0.0357439 0.0106354 0 0 0 0.000822535 -0.00394706 0.007782 -0.00131743 0.114173 -0.020448 -12.384 4.58815 -16.3477 0.004 300 0 
606 1 1 -0.000751608 -0.0375648 0.00874263 0 0 0 0.0993975 -0.125043 0.0149638 -0.0117488 -0.0249247 0.127307 -12.0379 -0.556554 5.50569 0.004 300 0 
183 1 1 0.024957 -0.0309105 0.00825206 0 0 0 0.123371 0.0239031 -0.1983 0.0109758 -0.00387608 -0.0960527 15.0827 11.7735 5.65656 0.004 300 0 
79 1 1 0.0352034 -0.0298647 0.00927606 0 0 0 0.0361717 0.0534579 0.102437 -0.0320618 -0.0822836 -0.120959 7.39373 10.2136 -16.6021 0.004 300 0 
29 1 1 -0.00573604 -0.0252007 0.00902922 0 0 0 0.0320102 -0.14196 0.00840228 -0.0672213 -0.0675529 0.135804 1.6757 10.7696 -7.16599 0.004 300 0 
248 1 1 0.00470417 -0.0283359 0.0081906 0 0 0 -0.00696789 -0.0184609 -0.0242101 -0.0383382 0.0772093 0.0454848 -2.55077 2.57576 -2.76536 0.004 300 0 
814 1 1 0.0179407 -0.0269985 0.0090497 0 0 0 0.0435495 0.0177647 0.147178 -0.0297964 -0.0144777 0.0616025 -8.45699 -2.24568 -0.96292 0.004 300 0 
769 1 1 -0.0410658 -0.0211112 0.00769566 0 0 0 0.000201024 -0.0169142 -0.0726217 -0.185251 0.105649 0.131729 2.59433 2.42377 4.92453 0.004 300 0 
777 1 1 0.0357386 -0.0195556 0.00868542 0 0 0 0.0327764 0.0482457 -0.064136 0.239421 -0.0160761 -0.136655 -6.02927 9.67405 8.4507 0.004 300 0 
19 1 1 -0.0101427 -0.0212291 0.00378808 0 0 0 0.0744946 -0.00462988 0.010037 0.166017 0.150769 0.144679 15.0553 -0.0450593 14.0893 0.004 300 0 
291 1 1 -0.00350457 -0.0177762 0.00787282 0 0 0 0.00339213 -0.10518 0.0377724 -0.0343157 -0.0302263 0.0456489 -4.35313 2.62506 -6.47286 0.004 300 0 
891 1 1 0.00480487 -0.0162669 0.00698815 0 0 0 -0.00411189 0.0165493 0.105858 -0.0776467 -0.051211 0.0759662 -4.82895 -7.93695 9.45069 0.004 300 0 
837 1 1 -0.0302288 -0.0143674 0.00771149 0 0 0 0.0269471 -0.0129553 -0.0255028 -0.181211 -0.0745138 -0.0720959 2.25661 -13.442 -19.095 0.004 300 0 
87 1 1 -0.0452507 -0.00865307 0.00574449 0 0 0 -0.0559334 0.0202607 -0.187733 0.0312315 0.17983 0.0255761 -11.7055 3.78396 -6.24742 0.004 300 0 
391 1 1 -0.00675877 -0.00587421 0.00371444 0 0 0 0.151359 -0.0209726 -0.00183119 -0.00580976 -0.10523 0.425235 -7.72273 10.9448 11.6357 0.004 300 0 
378 1 1 0.00318066 -0.00496032 0.00407202 0 0 0 -0.130776 -0.082569 0.0196593 -0.110485 0.160328 -0.00315002 5.78479 16.3395 9.93593 0.004 300 0 
411 1 1 0.021896 -0.00378802 0.0038901 0 0 0 0.0722594 -0.0203341 0.17094 0.0234498 0.0115406 0.165938 -9.45315 -27.269 -13.4955 0.004 300 0 
338 1 1 0.0398195 -0.00228112 0.0101477 0 0 0 0.0897434 0.0164072 0.102712 0.132743 0.0386085 0.243335 -4.76067 2.19006 26.2315 0.004 300 0 
16 1 1 -0.0209174 0.000991499 0.00767323 0 0 0 -0.110167 -0.0297356 -0.00335978 -0.191679 0.116323 0.111123 -8.53378 1.66142 -2.91647 0.004 300 0 
704 1 1 -0.00988108 0.00362994 0.00703122 0 0 0 -0.0119816 0.0869774 -0.156946 0.0134686 0.0207843 0.0761291 18.5375 23.8588 3.25114 0.004 300 0 
31 1 1 0.0113914 0.00558529 0.00726794 0 0 0 0.106787 -0.0855366 -0.0215262 -0.0497208 -0.0789576 0.102532 -7.58288 -10.0725 25.1272 0.004 300 0 
12 1 1 -0.0321812 0.00609739 0.0056625 0 0 0 -0.0685021 0.165969 -0.00404233 0.114147 -0.024862 0.0955559 -0.707949 7.48953 -6.85227 0.004 300 0 
712 1 1 0.0282031 0.00790469 0.00951949 0 0 0 -0.00120451 0.0679434 0.0186756 -0.0566464 0.210939 -0.082531 10.3115 6.0829 -1.94861 0.004 300 0 
210 1 1 0.0395523 0.00720901 0.00963821 0 0 0 -0.148758 -0.0193333 -0.0535747 -0.00211236 -0.0634091 -0.043493 -6.76082 16.3014 -5.17177 0.004 300 0 
624 1 1 0.0452908 0.00829274 0.00404677 0 0 0 -0.060785 0.0832751 -0.117077 -0.0229979 0.259977 -0.20369 -4.50092 -3.07912 3.88363 0.004 300 0 
273 1 1 -0.0196305 0.0132261 0.00450201 0 0 0 -0.0187445 -0.00796637 -0.00180909 -0.0604705 -0.175423 0.0417 0.227569 -2.10809 -10.0401 0.004 300 0 
492 1 1 -0.0118836 0.0122413 0.00371632 0 0 0 -0.0103744 -0.0161945 0.0581398 -0.05816 0.0533249 -0.357424 9.41768 -3.53102 -3.77382 0.004 300 0 
493 1 1 0.00941778 0.0178528 0.00392235 0 0 0 -0.0543391 0.0602595 0.0820603 0.0459124 0.0069643 -0.0923855 -16.4934 1.43386 28.1522 0.004 300 0 
632 1 1 -0.0371932 0.0164188 0.0100808 0 0 0 -0.11799 0.219386 -0.0670888 -6.39181e-05 0.115161 0.206566 -2.52032 27.6277 -1.82222 0.004 300 0 
726 1 1 -0.0247242 0.0189211 0.00643917 0 0 0 -0.0278846 0.05054 -0.0309296 -0.0237041 0.0240972 0.039714 10.6826 4.20125 -13.9937 0.004 300 0 
747 1 1 -0.0344284 0.0306617 0.00999966 0 0 0 0.0499324 0.0891699 0.0357001 -0.0235689 0.0639802 0.0241403 11.1008 -8.85704 8.91475 0.004 300 0 
230 1 1 -0.0102842 0.0255761 0.00892043 0 0 0 0.0506907 0.00751562 -0.0687925 0.143829 -0.0308734 -0.0705459 -5.2607 -12.4373 16.3378 0.004 300 0 
366 1 1 0.0349968 0.0300898 0.0110255 0 0 0 0.079666 0.0845251 -0.0312905 -0.403678 -0.19128 -0.0133496 11.2048 2.88301 -20.718 0.004 300 0 
51 1 1 -0.0227256 0.0333322 0.00725532 0 0 0 0.156204 -0.00199979 0.0321661 0.0821139 0.0567433 -0.0481723 -3.15085 -20.3148 -2.8822 0.004 300 0 
22 1 1 0.00547614 0.0352879 0.0106942 0 0 0 -0.0105097 0.250931 0.109263 0.0652741 -0.196429 -0.0398276 13.3545 15.178 3.38985 0.004 300 0 
116 1 1 -0.00934257 0.0389609 0.00838034 0 0 0 -0.0695553 0.01325 -0.00345357 0.037019 0.124354 -0.0146912 5.42569 0.616188 2.48666 0.004 300 0 
729 1 1 0.0118614 0.0431208 0.0101663 0 0 0 -0.00713214 0.0734409 0.0224559 0.0558259 0.0152513 0.0939628 -8.6516 -10.2988 25.3727 0.004 300 0 
433 1 1 0.0279529 0.0367719 0.0100888 0 0 0 0.0216312 -0.0302758 -0.160653 -0.367605 -0.415449 -0.178657 1.06662 -27.2967 9.31235 0.004 300 0 
595 1 1 -0.0151341 0.043625 0.00558144 0 0 0 -0.0838583 0.0142794 0.0748137 -0.120186 -0.0603063 -0.0979891 0.42464 5.58859 11.0263 0.004 300 0 
151 1 1 0.00383322 0.0429489 0.010058 0 0 0 0.0692997 0.13615 -0.0570578 0.116085 -0.192209 0.117968 1.79991 6.03899 5.87742 0.004 300 0 
205 1 1 0.00100716 -0.046144 0.0104627 0 0 0 -0.140567 0.0268052 0.0462001 -0.0178126 0.101577 0.139909 -8.63285 -13.9979 13.0812 0.004 300 0 
836 1 1 0.00891473 -0.045214 0.0118497 0 0 0 -0.0901843 -0.0286533 -0.0531487 -0.0821014 0.0473053 -0.0583981 7.24456 -3.63199 1.01202 0.004 300 0 
311 1 1 -0.00628988 -0.0429442 0.0106754 0 0 0 -0.106219 0.0395031 -0.0865641 -0.00210692 -0.0384795 0.216855 4.70951 -6.09657 -3.75313 0.004 300 0 
447 1 1 0.0170078 -0.042869 0.0117283 0 0 0 0.0111534 -0.0315088 -0.0315111 -0.0130173 -0.00130695 0.0856094 18.7953 -18.191 5.31085 0.004 300 0 
486 1 1 -0.016246 -0.040067 0.0107669 0 0 0 -0.0953576 0.0691452 0.106529 0.0676484 -0.0385877 -0.0496569 -3.88413 -20.2668 7.7264 0.004 300 0 
110 1 1 0.0241021 -0.0393902 0.0117382 0 0 0 0.0272167 0.0111002 -0.0060974 0.0480842 0.000334159 0.120876 -6.33681 -2.94366 -0.613879 0.004 300 0 
188 1 1 -0.0173265 -0.0321951 0.0104688 0 0 0 0.0761988 -0.0297376 -0.0591568 -0.0495298 -0.0500248 0.046176 10.0224 -19.7476 -20.9979 0.004 300 0 
100 1 1 0.0113756 -0.0304672 0.0118502 0 0 0 0.0254474 -0.0389461 -0.0124906 0.0113324 0.0252014 -0.0162068 15.4944 -0.433746 -9.1341 0.004 300 0 
556 1 1 0.0180747 -0.0344949 0.0115315 0 0 0 -0.0563824 -0.0799176 -0.12421 -0.0585862 -0.0505163 0.476209 18.3209 -19.8113 10.7485 0.004 300 0 
32 1 1 0.0303417 -0.0347391 0.0128992 0 0 0 -0.0632904 0.0814571 -0.0291888 -0.204405 -0.00966909 0.0222205 10.4089 -11.8326 0.729048 0.004 300 0 
724 1 1 -0.0335696 -0.0315939 0.00920076 0 0 0 -0.0668409 0.021066 -0.0353112 -0.183484 0.0875505 0.118647 -9.71927 -10.0827 7.56713 0.004 300 0 
415 1 1 -0.0253119 -0.0302997 0.010102 0 0 0 -0.0513556 -0.130437 -0.171243 0.0580133 -0.0132251 0.0452381 9.46726 -7.69173 18.4549 0.004 300 0 
446 1 1 -0.0109634 -0.0286166 0.0137168 0 0 0 -0.0422627 -0.00304282 0.030235 -0.0116921 0.0098837 -0.176569 -10.2408 -12.8854 -6.79291 0.004 300 0 
24 1 1 0.0300291 -0.0243366 0.0113168 0 0 0 0.0814626 0.140676 0.0727237 0.0267983 -0.00351276 -0.15557 0.356608 -9.01812 8.08966 0.004 300 0 
266 1 1 -0.0302408 -0.021744 0.0107001 0 0 0 0.124993 0.0177546 0.00876178 -0.157228 -0.0520614 -0.0293629 16.9393 -0.254881 -3.33207 0.004 300 0 
487 1 1 -0.0225897 -0.0195919 0.0103976 0 0 0 -0.0312092 -0.00708796 -0.0408481 0.207925 0.003013 0.108916 20.4179 -3.60058 19.6694 0.004 300 0 
544 1 1 -0.0153183 -0.0248266 0.00838884 0 0 0 0.0766968 -0.0957668 -0.129962 -0.109848 0.255683 0.176202 6.9624 -12.1555 3.64806 0.004 300 0 
655 1 1 0.00111889 -0.0224779 0.011987 0 0 0 0.0499781 -0.0384799 0.0316196 -0.0694288 -0.0305794 -0.0372311 -13.465 10.5523 18.4726 0.004 300 0 
243 1 1 0.0115431 -0.022672 0.010774 0 0 0 0.0131883 0.00189907 0.0523799 -0.0467158 0.184529 0.0984554 -10.3307 -2.53227 12.3208 0.004 300 0 
356 1 1 -0.0362316 -0.016761 0.0121076 0 0 0 -0.0273907 0.00857966 -0.064152 -0.009362 0.0177867 0.15586 -2.51996 -0.374237 0.359775 0.004 300 0 
445 1 1 -0.0167664 -0.0143056 0.0109426 0 0 0 -0.103406 -0.0950582 0.0162878 0.0977028 0.022975 -0.174709 1.68134 -2.05792 -11.6698 0.004 300 0 
739 1 1 -0.0105117 -0.0191308 0.011378 0 0 0 -0.00312787 -0.0522313 0.042785 -0.0982947 -0.0536061 0.0496001 -15.9732 2.81198 20.4527 0.004 300 0 
870 1 1 0.0135337 -0.0152545 0.00839341 0 0 0 -0.0812867 -0.00877453 -0.0646176 -0.194754 -0.0297393 0.186507 5.14744 -14.5632 10.6173 0.004 300 0 
309 1 1 0.0237667 -0.019674 0.010273 0 0 0 -0.00491723 0.0437871 0.0524215 0.115628 -0.040224 -0.0132554 1.40689 0.0455175 6.19974 0.004 300 0 
418 1 1 0.0428507 -0.017092 0.0114798 0 0 0 -0.0579158 0.104368 -0.0381882 -0.0709159 -0.0179939 0.192376 6.58043 -15.5807 -8.47392 0.004 300 0 
673 1 1 -0.0437372 -0.0144077 0.0109894 0 0 0 -0.0192893 0.02138 0.00156182 -0.0404387 0.0438199 -0.0492514 -6.99758 12.7364 -1.20744 0.004 300 0 
388 1 1 -0.0353731 -0.00856893 0.0111396 0 0 0 -0.047268 0.173324 -0.186012 0.172887 0.00971949 0.10265 -7.42284 -17.0253 11.8672 0.004 300 0 
437 1 1 -0.0228008 -0.00921213 0.0105188 0 0 0 -0.0899141 -0.0289966 -0.0105094 0.0411377 0.0415993 0.26996 -3.69221 -17.8519 17.7179 0.004 300 0 
775 1 1 -0.00866646 -0.0108152 0.0112318 0 0 0 -0.139832 -0.00620498 0.0833134 -0.272119 -0.0912281 -0.214638 -5.92673 -10.0589 17.7255 0.004 300 0 
783 1 1 0.00612755 -0.00935358 0.0109706 0 0 0 -0.0389302 -0.0473352 0.00205634 0.203654 -0.106521 0.0461141 10.6902 2.65963 8.93136 0.004 300 0 
332 1 1 0.0210117 -0.011228 0.0102204 0 0 0 -0.0737647 -0.00666165 0.182647 0.0664497 -0.0072092 0.0280889 -1.85849 -5.18304 -24.7464 0.004 300 0 
374 1 1 0.0298876 -0.0147738 0.0109672 0 0 0 -0.0268849 0.0200261 -0.156294 0.0432879 0.159658 -0.0496695 -1.29197 4.05233 -5.71901 0.004 300 0 
840 1 1 0.0452104 -0.00899084 0.0116393 0 0 0 0.0747648 0.0167546 -0.0614373 -0.214397 0.0193385 -0.000567292 -0.151333 -14.782 -8.48816 0.004 300 0 
482 1 1 -0.0152851 -0.00658582 0.0102607 0 0 0 -0.0852667 -0.00780528 -0.029285 -0.0701548 -0.0289613 0.1806 -7.53553 3.40495 9.69179 0.004 300 0 
73 1 1 -0.00153376 -0.00775968 0.0105999 0 0 0 -0.079224 0.00829799 -0.0774335 0.0185924 -0.0905739 -0.0619588 -14.8487 3.7289 -24.7541 0.004 300 0 
194 1 1 0.0138967 -0.0077672 0.011431 0 0 0 -0.10538 0.116747 0.017166 -0.0574615 0.462295 -0.375365 -2.5952 14.4813 -10.5905 0.004 300 0 
706 1 1 0.027699 -0.00700865 0.0106245 0 0 0 -0.0287752 0.157631 0.0731811 -0.0875629 0.0750196 0.202763 -13.694 18.8936 20.2176 0.004 300 0 
589 1 1 0.035353 -0.00890618 0.0104887 0 0 0 0.0547361 0.0553615 0.00675002 0.128551 -0.306286 -0.406942 16.5842 -33.2869 -10.7352 0.004 300 0 
717 1 1 -0.0415463 -0.00104789 0.0108554 0 0 0 0.00875611 0.0232419 0.0385452 -0.0917618 -0.0199486 -0.118775 8.39126 8.68846 2.68322 0.004 300 0 
615 1 1 -0.0341496 -0.0010935 0.00821437 0 0 0 -0.0888639 0.144769 -0.0360997 -0.0032966 -0.219367 0.0715529 16.9164 -6.13981 -7.86845 0.004 300 0 
370 1 1 -0.0271589 -0.0027179 0.0112861 0 0 0 -0.139098 0.0282557 -0.0146799 0.176061 0.105006 0.0944699 5.93551 -1.24047 -8.86197 0.004 300 0 
875 1 1 -0.00762885 -0.00279094 0.0107294 0 0 0 -0.0264466 0.102374 -0.0550568 -0.0991201 -0.095286 0.426881 -23.4814 -23.154 1.07645 0.004 300 0 
735 1 1 0.000268641 -0.000183939 0.0111922 0 0 0 0.139007 0.0290701 -0.118597 0.0559842 0.0416842 -0.052998 -10.3837 -4.4624 -8.36648 0.004 300 0 
90 1 1 0.00792201 -0.00171077 0.00961399 0 0 0 -0.100834 0.0094472 0.0358645 0.152326 -0.36106 0.433919 -1.3667 -6.93808 -1.63879 0.004 300 0 
172 1 1 0.0165017 -0.000263448 0.0106486 0 0 0 -0.116393 0.0579658 -0.0142303 -0.163755 0.126178 0.0490115 -9.36123 -1.43851 -0.660623 0.004 300 0 
476 1 1 -0.0457841 0.00553991 0.011411 0 0 0 -0.103297 0.0120487 -0.0282097 0.236799 0.0705306 0.349814 -5.34324 -6.7688 7.925 0.004 300 0 
15 1 1 0.024325 7.17455e-05 0.0108776 0 0 0 -0.113634 0.0746081 -0.0386218 0.203221 0.0485311 0.260484 15.2334 13.8547 -21.1923 0.004 300 0 
342 1 1 0.0319389 -0.000731027 0.00765564 0 0 0 -0.0561483 -0.106691 -0.130218 -0.128607 -0.0560022 -0.199167 33.5634 -11.9426 31.6327 0.004 300 0 
303 1 1 0.0460263 0.00244687 0.00925711 0 0 0 0.0384458 0.147389 -0.0460186 0.0263996 0.0508241 0.0453177 -16.0333 2.85898 8.99161 0.004 300 0 
523 1 1 -0.0381853 0.00792256 0.0106496 0 0 0 -0.142087 0.227254 -0.0944489 0.0280065 -0.0298888 0.107344 2.54364 28.5922 -1.83172 0.004 300 0 
292 1 1 -0.0146583 0.00930051 0.0103132 0 0 0 -0.0710599 0.0753859 0.0592897 -0.0912596 -0.140644 0.122217 -15.8094 8.02806 -22.2917 0.004 300 0 
454 1 1 0.00108534 0.00717974 0.00862569 0 0 0 0.0982435 0.0219343 -0.037613 0.08582 -0.244593 0.148775 -2.28102 -18.0877 16.9103 0.004 300 0 
393 1 1 0.00684047 0.0116848 0.0114264 0 0 0 0.0874734 -0.0414857 0.168462 -0.218451 -0.0289599 -0.180364 -18.3705 -14.4577 13.6585 0.004 300 0 
135 1 1 0.0199164 0.00714689 0.0103101 0 0 0 0.097621 0.0245918 -0.0504632 -0.0978867 -0.090667 0.0503549 -30.6601 -20.7029 16.8688 0.004 300 0 
651 1 1 -0.0442317 0.0130258 0.00932821 0 0 0 -0.0180903 0.00219339 -0.0600376 0.0499406 0.0421327 0.195101 16.717 -8.20063 2.39639 0.004 300 0 
636 1 1 -0.0264385 0.0103816 0.010403 0 0 0 0.0146111 0.0997906 0.0377401 0.0956435 -0.0422739 0.0485566 0.451306 12.3399 -2.69754 0.004 300 0 
43 1 1 -0.00653579 0.014239 0.00883764 0 0 0 0.0435681 -0.0115184 -0.0624377 0.0750956 0.0787961 0.106734 3.57971 16.3577 -5.21492 0.004 300 0 
161 1 1 0.0144503 0.0133987 0.0111231 0 0 0 0.0632981 0.209118 0.0425721 0.0540409 0.0867863 -0.198553 -34.8464 -22.7256 13.1428 0.004 300 0 
460 1 1 0.0290124 0.0147099 0.0135244 0 0 0 0.0536541 0.0747369 -0.00333753 0.0152197 0.130459 -0.0961612 22.638 -1.1439 -9.20586 0.004 300 0 