ITEM: TIMESTEP
42400
ITEM: NUMBER OF ATOMS
891
ITEM: BOX BOUNDS mm mm mm
-0.05 0.05
-0.05 0.05
0 0.15
ITEM: ATOMS id type type x y z ix iy iz vx vy vz fx fy fz omegax omegay omegaz radius f_Temp[0] f_heatFlux[0] 
199 1 1 -0.00444377 -0.0458158 0.00397435 0 0 0 1.16084e-08 -1.03928e-07 -1.18493e-07 -2.53156e-08 9.60111e-08 1.3843e-07 -9.13782e-06 1.22336e-05 -1.15656e-05 0.004 505.311 1.62333 
873 1 1 -0.0201484 -0.0414789 0.0039016 0 0 0 -5.21485e-08 -4.73638e-08 -7.36162e-08 6.67011e-08 8.77332e-08 1.20715e-07 -1.21594e-05 -6.00284e-06 3.87296e-06 0.004 424.201 2.87258 
485 1 1 -0.0126796 -0.0442534 0.00397264 0 0 0 -1.42093e-10 -7.62765e-08 -1.04867e-07 -5.87468e-09 9.94304e-08 1.27111e-07 -3.21652e-06 2.6577e-05 -1.31467e-05 0.004 458.843 2.66095 
850 1 1 0.00335642 -0.0441759 0.00394115 0 0 0 -5.9365e-08 -1.84455e-07 -1.57087e-07 3.68845e-08 1.38229e-07 1.78932e-07 3.03154e-05 -2.35335e-05 3.15685e-05 0.004 554.241 0.126202 
186 1 1 0.0114401 -0.0445988 0.00392827 0 0 0 -1.29457e-08 -8.97482e-08 -1.28536e-07 -8.40164e-09 6.96066e-08 1.19232e-07 1.82853e-06 -1.98151e-05 2.73948e-06 0.004 626.625 -1.90523 
560 1 1 0.018969 -0.0420006 0.00394676 0 0 0 3.77128e-08 -7.76797e-08 -1.07024e-07 -4.67308e-08 5.99773e-08 9.31119e-08 -3.07637e-06 1.31813e-06 3.38857e-06 0.004 657.546 -2.48927 
102 1 1 -0.0147501 -0.0357331 0.00386311 0 0 0 -4.99504e-08 -1.59101e-07 -2.22518e-07 6.42772e-08 2.41704e-07 2.91147e-07 4.49234e-06 3.14677e-06 -1.82421e-05 0.004 445.067 2.37233 
88 1 1 -0.00730762 -0.0383837 0.00392727 0 0 0 -5.77144e-08 -1.66165e-07 -1.84524e-07 5.24409e-08 1.64955e-07 2.33253e-07 2.02293e-05 -1.48969e-05 1.30721e-05 0.004 487.481 1.72187 
776 1 1 0.00520385 -0.0354368 0.00395023 0 0 0 -9.51096e-09 -2.95157e-07 -3.23655e-07 -2.21861e-08 2.1653e-07 2.65888e-07 4.39539e-05 -1.63966e-05 2.01572e-05 0.004 591.191 -0.932281 
410 1 1 0.0130236 -0.0368131 0.00392572 0 0 0 3.95387e-08 -1.59158e-07 -2.6003e-07 -7.23325e-08 1.28229e-07 2.20944e-07 9.2049e-08 -3.1004e-06 3.66256e-06 0.004 634.372 -1.96736 
282 1 1 0.025876 -0.0381319 0.00388527 0 0 0 5.06193e-08 -1.05084e-07 -1.41689e-07 -6.24427e-08 4.5453e-08 1.02793e-07 -3.77514e-06 1.12694e-06 -6.43169e-06 0.004 696.709 -2.97228 
682 1 1 -0.0302016 -0.0348779 0.00393465 0 0 0 -1.35059e-08 -3.36002e-08 -5.45559e-08 2.40096e-08 4.56504e-08 6.27673e-08 -3.73159e-06 4.36401e-06 -5.97258e-07 0.004 372.433 2.90644 
251 1 1 -0.0224189 -0.0338476 0.00392332 0 0 0 -4.25199e-08 -8.85865e-08 -1.57442e-07 5.95831e-08 1.52998e-07 1.96446e-07 4.63661e-06 1.37353e-05 -7.79145e-06 0.004 407.12 2.80951 
770 1 1 -0.00204754 -0.0321408 0.00393964 0 0 0 -4.51762e-09 -3.05736e-07 -2.89207e-07 -8.65061e-09 2.17084e-07 2.52762e-07 4.43385e-05 1.43939e-05 -4.15869e-05 0.004 545.277 0.13972 
883 1 1 0.018166 -0.0307536 0.00390023 0 0 0 1.00181e-07 -2.54392e-07 -4.34226e-07 -1.43065e-07 1.35348e-07 3.25976e-07 3.71216e-05 4.94963e-05 -1.49458e-05 0.004 669.905 -2.52502 
838 1 1 0.0320336 -0.033109 0.00396073 0 0 0 1.00779e-07 -9.04302e-08 -2.30505e-07 -8.56353e-08 1.66825e-08 1.65211e-07 -3.08325e-05 -7.95397e-07 -2.3944e-06 0.004 723.899 -3.05239 
617 1 1 -0.0372521 -0.0271215 0.00391646 0 0 0 5.24455e-09 -4.18281e-08 -4.40587e-08 1.29328e-09 4.24114e-08 5.03593e-08 8.71063e-06 3.76886e-06 -2.55733e-06 0.004 344.256 2.66411 
824 1 1 -0.0292998 -0.0270298 0.00392984 0 0 0 2.37244e-08 -4.91371e-08 -1.32127e-07 -6.04211e-09 5.72411e-08 1.08612e-07 -4.56133e-06 1.68804e-05 -7.09622e-06 0.004 360.531 2.8028 
571 1 1 -0.0202615 -0.0262215 0.00393285 0 0 0 -1.77114e-08 -1.40184e-07 -2.84153e-07 4.03923e-08 2.18512e-07 2.62577e-07 -1.73156e-06 1.05503e-05 -2.21134e-05 0.004 402.796 2.7353 
861 1 1 -0.00959294 -0.0297304 0.00389698 0 0 0 -3.48175e-08 -2.16374e-07 -3.52558e-07 5.81592e-08 2.8628e-07 3.57677e-07 2.66071e-06 -8.98586e-06 2.04365e-05 0.004 478.106 1.61326 
434 1 1 0.0103455 -0.0293807 0.00393742 0 0 0 2.22694e-08 -2.51454e-07 -3.73237e-07 -7.39201e-08 1.9528e-07 3.01486e-07 1.25743e-05 -2.024e-05 1.23953e-05 0.004 627.423 -1.71605 
103 1 1 0.0311547 -0.0252347 0.00394363 0 0 0 1.11896e-07 -1.49824e-07 -3.5314e-07 -1.56479e-07 -3.96018e-08 2.31857e-07 1.9942e-05 -3.16513e-05 1.80516e-05 0.004 733.65 -2.89262 
769 1 1 -0.041344 -0.0202818 0.0039823 0 0 0 1.79707e-08 -1.7517e-08 -2.72863e-08 -8.53462e-09 3.1442e-08 3.55134e-08 -5.49398e-06 6.36343e-06 -5.17774e-06 0.004 333.426 2.44121 
94 1 1 -0.0333714 -0.0202163 0.0039437 0 0 0 2.6581e-08 -4.53755e-08 -1.55144e-07 -9.55143e-09 6.35365e-08 1.28802e-07 -1.76768e-05 2.42092e-05 1.02755e-08 0.004 346.87 2.58886 
40 1 1 -0.025401 -0.0201464 0.00391761 0 0 0 3.48994e-08 -5.96672e-08 -2.64886e-07 -2.75037e-08 1.02402e-07 2.15558e-07 -3.88627e-06 1.79325e-05 2.31674e-06 0.004 371.194 2.69685 
19 1 1 -0.00865072 -0.0218804 0.00393966 0 0 0 -5.00527e-08 -2.03831e-07 -4.13586e-07 3.02093e-08 2.69964e-07 3.1533e-07 1.45235e-05 1.01801e-05 -1.59277e-05 0.004 479.356 1.51767 
442 1 1 -0.000436967 -0.02185 0.00393583 0 0 0 -4.91088e-08 -2.42337e-07 -5.0322e-07 -6.61058e-09 2.08163e-07 3.91973e-07 2.25493e-05 -1.37671e-05 -1.38163e-05 0.004 552.209 -0.0335077 
259 1 1 0.00753191 -0.0220001 0.00392511 0 0 0 -5.37605e-08 -3.06086e-07 -4.1699e-07 -1.25865e-08 2.22472e-07 3.10776e-07 2.72766e-05 -3.34962e-05 1.03082e-05 0.004 615.476 -1.41628 
512 1 1 0.0153883 -0.0232356 0.00397834 0 0 0 8.66465e-08 -2.61316e-07 -4.05948e-07 -1.06977e-07 1.08424e-07 2.32299e-07 1.50581e-05 5.21273e-05 -1.86444e-05 0.004 667.282 -2.32528 
470 1 1 0.0232616 -0.0243589 0.00390815 0 0 0 1.25228e-07 -2.87793e-07 -5.63661e-07 -1.6126e-07 4.8381e-08 3.79323e-07 5.1694e-05 7.06345e-06 1.02482e-05 0.004 704.898 -2.83153 
451 1 1 0.0390293 -0.0244875 0.00392048 0 0 0 9.98386e-08 -1.70695e-08 -8.69232e-08 -8.61233e-08 -4.66573e-08 5.08057e-08 -2.41317e-06 1.22815e-07 1.74606e-06 0.004 754.207 -2.66021 
531 1 1 -0.0164596 -0.0192004 0.00396125 0 0 0 7.14938e-08 -1.55793e-07 -2.25409e-07 -1.08044e-07 2.70205e-07 1.32778e-07 3.75037e-05 8.83187e-06 -2.98751e-06 0.004 413.963 2.66662 
229 1 1 0.0202059 -0.0169136 0.00386875 0 0 0 1.72228e-07 -3.31058e-07 -7.26964e-07 -2.71437e-07 -2.45531e-08 4.31863e-07 2.85304e-05 -6.52262e-07 3.54102e-06 0.004 696.748 -2.55687 
734 1 1 0.0280521 -0.017942 0.00394397 0 0 0 1.95668e-07 -2.80408e-07 -4.31679e-07 -2.26884e-07 -1.5652e-07 3.00369e-07 8.33748e-06 -2.66287e-05 -1.90337e-05 0.004 734.212 -2.74006 
635 1 1 0.0425981 -0.0174495 0.00392191 0 0 0 1.24915e-07 -5.9881e-08 -1.21019e-07 -9.76963e-08 -7.98759e-08 5.96252e-08 2.23406e-06 3.54684e-05 -7.85565e-06 0.004 772.528 -2.18231 
87 1 1 -0.0448224 -0.0104639 0.0039142 0 0 0 -1.50262e-08 -7.07276e-09 -4.86433e-08 2.99326e-08 8.78302e-09 3.33016e-08 3.46648e-06 -2.23849e-06 -6.48996e-06 0.004 320.368 1.89421 
406 1 1 -0.0373951 -0.013391 0.00396016 0 0 0 3.50874e-08 -3.72174e-08 -1.34369e-07 3.77569e-09 7.16802e-08 1.05827e-07 -1.27203e-06 2.40093e-05 -2.07924e-06 0.004 330.847 2.24851 
224 1 1 -0.0230581 -0.0126019 0.00387961 0 0 0 1.47168e-08 -5.26863e-08 -3.56003e-07 -2.32706e-08 1.55472e-07 2.59718e-07 9.11011e-06 1.89477e-05 -4.78223e-06 0.004 383.232 2.50516 
751 1 1 -0.0102996 -0.0141546 0.00396945 0 0 0 4.87719e-08 -1.70705e-07 -3.68624e-07 -8.93466e-08 2.1212e-07 2.39997e-07 -2.28274e-06 3.71427e-05 2.55224e-07 0.004 458.691 1.79809 
622 1 1 -0.00273388 -0.0117409 0.00388524 0 0 0 2.47974e-08 -2.28591e-07 -6.72979e-07 -7.30331e-08 1.11498e-07 3.8734e-07 5.05728e-05 2.66447e-05 -2.13394e-05 0.004 517.564 0.627124 
128 1 1 0.00951067 -0.010685 0.00388458 0 0 0 1.51374e-07 -3.88919e-07 -9.06244e-07 -3.22311e-07 5.13484e-08 4.48135e-07 6.42566e-05 1.21068e-05 3.77089e-06 0.004 637.15 -1.70313 
68 1 1 0.0262808 -0.010211 0.00395438 0 0 0 2.37746e-07 -6.20346e-07 -6.1828e-07 -2.91961e-07 -5.12958e-08 2.13114e-07 1.21871e-05 -5.28268e-06 8.14134e-05 0.004 739.077 -2.62415 
791 1 1 0.0340945 -0.0118532 0.00392801 0 0 0 1.50447e-07 -9.50034e-08 -3.06317e-07 -2.19315e-07 -3.37865e-07 1.44698e-07 -2.57241e-05 1.84418e-05 -1.80686e-05 0.004 762.227 -2.44037 
354 1 1 -0.0380748 -0.00550396 0.00392042 0 0 0 2.21174e-08 4.32627e-09 -1.54252e-07 6.4034e-08 6.27959e-08 1.01119e-07 -1.24315e-05 3.67939e-06 2.31004e-06 0.004 327.581 2.04817 
725 1 1 -0.0304901 -0.00800531 0.0039252 0 0 0 4.18705e-08 -1.41466e-08 -1.90127e-07 1.25685e-08 5.78401e-08 1.29132e-07 8.78905e-06 6.71628e-06 1.97478e-06 0.004 342.261 2.33623 
353 1 1 -0.0161288 -0.0087981 0.00391143 0 0 0 2.70866e-08 -8.21092e-08 -4.04002e-07 -2.5509e-08 1.24827e-07 2.56667e-07 -2.93381e-05 -6.41133e-06 -1.2876e-05 0.004 420.952 2.28714 
391 1 1 -0.00857661 -0.00639748 0.00391357 0 0 0 -3.85978e-09 -1.39041e-07 -5.3384e-07 -1.46944e-07 1.3903e-07 2.81902e-07 -3.63348e-05 -1.74709e-06 1.4884e-05 0.004 473.985 1.46419 
683 1 1 0.0173533 -0.00945629 0.00390986 0 0 0 1.21286e-07 -3.63863e-07 -6.95318e-07 -2.60392e-07 -1.19033e-07 4.30301e-07 5.34237e-05 2.15745e-05 -9.03931e-06 0.004 687.942 -2.42172 
690 1 1 0.0385537 -0.00520142 0.00390022 0 0 0 1.06501e-07 -7.70562e-08 -3.79992e-07 -2.39609e-07 -4.0524e-07 2.61039e-07 2.70188e-06 1.29375e-05 -1.913e-05 0.004 775.137 -1.99427 
10 1 1 0.0449635 -0.00990888 0.00397399 0 0 0 1.29381e-07 -1.79214e-07 -1.84301e-07 4.29981e-08 -2.46224e-07 -7.86709e-08 -4.43242e-06 -8.00256e-06 -1.34408e-05 0.004 780.503 -1.84976 
402 1 1 -0.046017 -0.00264172 0.00392182 0 0 0 1.35697e-11 5.13828e-09 -6.92301e-08 3.2069e-08 8.40298e-09 3.99995e-08 -1.63032e-06 9.18216e-06 1.5298e-06 0.004 320.223 1.82295 
761 1 1 -0.0294744 -0.000168337 0.00392563 0 0 0 3.139e-08 1.89711e-08 -2.58751e-07 5.46287e-08 6.96317e-08 1.63745e-07 1.29731e-06 6.73872e-06 -6.28213e-07 0.004 353.332 2.35648 
293 1 1 -0.0229324 -0.00466873 0.0039595 0 0 0 5.67862e-08 -7.81927e-09 -3.36288e-07 2.0121e-08 1.26178e-07 2.01123e-07 -2.50674e-05 3.51596e-05 -2.86107e-07 0.004 381.67 2.46974 
384 1 1 -0.0147015 -0.00090734 0.0039815 0 0 0 4.63697e-05 0.000428654 -8.42371e-08 -2.68246e-12 -1.47807e-11 -1.48586e-07 -0.107412 0.0116193 0.107886 0.004 305.949 0 
378 1 1 0.0013061 -0.00490407 0.00392906 0 0 0 -8.05603e-08 -1.84509e-07 -6.10903e-07 -4.60891e-07 8.03452e-08 2.1498e-07 5.15355e-05 7.22415e-05 6.61357e-05 0.004 554.944 -0.118123 
390 1 1 0.0103707 -0.00276531 0.00396886 0 0 0 -4.80159e-07 -5.16111e-07 -6.47375e-07 -5.62474e-07 -9.19699e-08 4.44414e-07 4.48105e-05 5.44807e-05 0.000144923 0.004 649.374 -1.99399 
411 1 1 0.0223603 -0.00329286 0.00397625 0 0 0 5.48708e-07 -1.15746e-06 -8.85936e-07 -7.35254e-07 5.35463e-07 1.63207e-07 3.69801e-07 8.91941e-05 -0.000181869 0.004 721.165 -2.67653 
342 1 1 0.0307348 -0.00361665 0.00397529 0 0 0 -2.11237e-07 -4.13057e-07 -4.61118e-07 -6.15046e-07 -6.00733e-07 -4.5946e-08 -3.19781e-06 -4.6437e-05 6.73109e-05 0.004 762.821 -2.32799 
262 1 1 0.0460221 -0.00206505 0.00395833 0 0 0 2.18284e-07 -4.64106e-07 -2.53739e-07 1.81246e-08 -5.55199e-07 -3.77154e-08 2.99427e-05 -1.09583e-05 4.61721e-05 0.004 781.121 -1.81313 
261 1 1 -0.0398214 0.002246 0.00393476 0 0 0 1.79752e-08 2.18065e-08 -1.36139e-07 3.63538e-08 3.92711e-08 7.01036e-08 2.08606e-06 1.87477e-05 2.41001e-06 0.004 327.653 1.99698 
666 1 1 -0.00454676 0.000451425 0.00395604 0 0 0 -1.93213e-07 -9.7913e-08 -5.86478e-07 -2.95918e-07 -3.63544e-08 2.0865e-07 -7.32974e-06 -7.37182e-05 2.31537e-05 0.004 508.501 0.826718 
815 1 1 0.00434368 0.0024356 0.00392711 0 0 0 -5.04759e-07 -4.83293e-07 -5.28678e-07 -6.22181e-07 -8.26497e-10 6.00177e-08 4.05493e-05 -0.000103823 -0.00010291 0.004 594.291 -0.913142 
306 1 1 0.01637 0.00247666 0.00395809 0 0 0 -1.94038e-07 -1.73374e-06 -9.29619e-07 2.73643e-07 1.07964e-06 -1.11792e-07 0.000295489 5.92482e-05 -0.000405192 0.004 691.916 -2.57979 
178 1 1 0.0241042 0.00444175 0.00386114 0 0 0 -7.79802e-08 -1.60534e-06 -1.06439e-06 5.3741e-07 1.0655e-06 9.33175e-07 0.000171831 -1.60729e-05 0.000314612 0.004 725.319 -2.6087 
862 1 1 0.0320656 0.00423367 0.00393097 0 0 0 -2.72718e-07 -8.57761e-07 -5.99955e-07 1.72998e-07 -8.80521e-07 6.59607e-07 0.000115138 -0.000175513 -3.12312e-05 0.004 756.676 -2.35518 
661 1 1 0.0398756 0.0029147 0.0039468 0 0 0 9.69848e-08 -1.13749e-06 -1.60618e-07 1.83249e-07 -7.27937e-07 1.2553e-07 0.000255388 3.24389e-05 2.38648e-06 0.004 774.211 -2.00718 
677 1 1 -0.0453782 0.0078854 0.00393641 0 0 0 4.04527e-09 1.29041e-08 -3.52526e-08 8.92673e-09 1.30561e-08 1.22119e-08 1.54785e-06 4.58135e-06 2.09751e-07 0.004 320.811 1.86251 
12 1 1 -0.0333161 0.0067196 0.00393696 0 0 0 3.43425e-08 3.10493e-08 -1.59608e-07 1.22448e-08 5.8901e-08 6.25479e-08 1.21838e-05 -4.75178e-07 -3.53103e-06 0.004 343.748 2.27255 
420 1 1 -0.0254 0.00664838 0.00392687 0 0 0 6.53043e-08 3.62777e-08 -2.4682e-07 -2.68117e-08 7.09619e-08 1.03242e-07 9.67143e-06 3.35381e-05 8.16925e-07 0.004 371.368 2.41072 
654 1 1 -0.0175134 0.00720947 0.00387212 0 0 0 4.46171e-08 3.79541e-08 -4.18984e-07 -9.85572e-08 5.90577e-08 1.52549e-07 1.6756e-05 2.23535e-05 4.88941e-06 0.004 411.389 2.22734 
145 1 1 -0.00454407 0.00836537 0.00386311 0 0 0 -2.47722e-08 -8.6201e-08 -5.32576e-07 -2.79732e-07 1.46024e-07 2.4309e-07 3.92182e-05 -1.49054e-05 -8.58105e-05 0.004 507.564 0.847552 
624 1 1 0.0451449 0.00890653 0.00390657 0 0 0 4.93795e-07 -7.89448e-07 -5.76286e-08 -5.43647e-07 -2.51026e-07 1.46416e-07 0.00010456 0.000129042 -8.00125e-05 0.004 778.384 -1.92503 
613 1 1 -0.0372991 0.0135339 0.00384344 0 0 0 2.56021e-08 4.24936e-08 -7.79952e-08 -1.05394e-08 3.6036e-08 -1.97384e-08 -9.85241e-07 1.80676e-06 1.85149e-06 0.004 333.415 2.21699 
265 1 1 -0.0293062 0.0135429 0.00396371 0 0 0 6.38297e-08 4.63125e-08 -6.62738e-08 -7.23367e-09 3.90667e-08 -6.46683e-09 5.84654e-06 1.07168e-05 1.34248e-06 0.004 357.889 2.54994 
273 1 1 -0.0213694 0.0141274 0.00392939 0 0 0 9.64865e-08 5.77732e-08 -1.68428e-07 -1.33401e-08 3.68554e-08 1.26013e-08 1.92794e-05 1.70273e-05 -5.76526e-06 0.004 385.333 2.55883 
492 1 1 -0.01145 0.0123712 0.00398079 0 0 0 2.92611e-08 7.97558e-08 -3.64294e-07 -1.08594e-07 3.11687e-08 5.64476e-08 3.20132e-07 7.08369e-06 2.33221e-05 0.004 458.189 1.82242 
234 1 1 0.00585285 0.010393 0.0039289 0 0 0 -3.76396e-07 -4.48878e-07 -6.77041e-07 -7.91241e-08 -5.2059e-07 -1.77488e-07 0.000125945 -1.69604e-05 -0.000204236 0.004 590.861 -0.783033 
160 1 1 0.0142843 0.0106356 0.00390957 0 0 0 -3.4272e-07 -1.22524e-06 -8.96615e-07 1.30572e-06 -2.21486e-07 2.70429e-07 0.000294614 -0.000177764 -0.000132094 0.004 665.75 -2.08277 
484 1 1 0.0220893 0.0120738 0.00390119 0 0 0 2.03983e-07 -2.36029e-06 -8.4743e-08 2.30353e-06 4.55283e-06 7.92944e-07 0.000414139 6.66675e-05 -0.000325008 0.004 712.368 -2.55529 
743 1 1 0.0300184 0.0126216 0.00398126 0 0 0 5.66309e-07 -5.26058e-06 -6.55172e-07 2.18849e-06 3.04767e-06 6.34212e-07 0.00133923 3.83711e-05 -0.000469886 0.004 741.273 -2.55612 
514 1 1 0.0379536 0.0130186 0.00386905 0 0 0 5.95168e-07 -2.57705e-06 -4.09579e-07 5.72576e-07 5.66551e-07 -2.84418e-07 0.000444224 0.000111028 0.000778297 0.004 764.172 -2.28555 
530 1 1 -0.0159002 0.0198648 0.00392796 0 0 0 9.76078e-08 1.09284e-07 -1.9818e-07 -3.79345e-08 -1.57626e-09 -1.13928e-08 -2.79362e-06 3.47972e-05 1.12792e-05 0.004 413.898 2.43368 
227 1 1 -0.00736503 0.0192084 0.00396595 0 0 0 9.03987e-08 1.46366e-08 -3.25604e-07 5.6999e-08 8.02838e-08 1.42792e-07 1.19794e-05 -3.36465e-06 -4.82068e-05 0.004 490.46 1.2946 
392 1 1 -0.000498629 0.0151513 0.00394446 0 0 0 1.25345e-07 3.04599e-08 -3.90235e-07 4.39465e-08 -1.62261e-07 2.87051e-07 -1.98427e-07 -3.32607e-06 4.70385e-05 0.004 539.455 0.261219 
493 1 1 0.00985839 0.0172531 0.00394647 0 0 0 2.70485e-07 -9.36042e-07 -3.70688e-07 2.66146e-07 -1.60392e-06 3.4352e-07 0.000130788 -2.81103e-06 -8.45755e-05 0.004 626.363 -1.43516 
34 1 1 0.0176357 0.0187852 0.00394099 0 0 0 7.24562e-07 -2.41637e-06 -4.62138e-08 5.66626e-07 9.51237e-07 -1.28492e-07 0.000483826 -1.5505e-05 -0.000357754 0.004 677.654 -2.2147 
206 1 1 0.0255397 0.0192352 0.00396993 0 0 0 8.43845e-07 -2.41858e-06 1.2608e-07 6.49679e-07 1.32727e-05 1.0688e-06 -0.000176418 0.00010574 0.00030413 0.004 720.154 -2.56782 
104 1 1 0.0334175 0.0199346 0.0038965 0 0 0 2.40728e-07 -2.38916e-06 -4.33388e-07 -6.30059e-07 1.00621e-05 8.9272e-07 0.000357251 7.08095e-06 -0.00023459 0.004 746.69 -2.55242 
809 1 1 -0.0412058 0.0204949 0.00395497 0 0 0 1.55974e-08 1.60932e-08 -2.88456e-08 -6.70389e-09 1.63819e-08 -1.57982e-08 6.1788e-06 1.55584e-06 -2.24688e-06 0.004 328.246 2.23831 
773 1 1 -0.0331523 0.0204531 0.00393522 0 0 0 4.75562e-08 6.71042e-08 -4.99712e-08 2.92252e-10 3.86671e-08 -4.35761e-08 -6.39909e-06 1.34193e-06 -2.92934e-06 0.004 349.664 2.67799 
792 1 1 0.00347677 0.0219735 0.00392105 0 0 0 3.05825e-07 -3.92245e-08 -3.5145e-07 4.07577e-07 -2.80462e-07 1.47571e-07 -9.38179e-06 4.75137e-05 -5.62005e-05 0.004 577.463 -0.538327 
718 1 1 0.0413199 0.0203659 0.00392989 0 0 0 2.75942e-07 -1.60503e-06 -3.58309e-07 -4.6601e-07 -1.84435e-07 -3.55799e-07 0.00021434 -2.78757e-06 0.000350319 0.004 762.554 -2.4348 
101 1 1 -0.0371146 0.0272995 0.00390402 0 0 0 2.74179e-08 2.83479e-08 -8.12953e-09 -2.94659e-08 4.27151e-08 -5.36563e-08 7.91608e-07 7.10508e-06 6.18047e-06 0.004 342.051 2.61676 
246 1 1 -0.0290567 0.0272807 0.00398271 0 0 0 8.31764e-08 4.69204e-08 -1.53493e-08 9.26499e-08 3.94401e-08 -3.28046e-08 2.89302e-06 6.24744e-06 -7.12546e-06 0.004 358.462 3.01872 
331 1 1 -0.0212281 0.0257798 0.00390018 0 0 0 9.36698e-08 7.16513e-08 -8.84125e-08 1.12622e-08 -3.04014e-10 -8.30436e-08 -1.11222e-05 1.99651e-05 4.18722e-06 0.004 388.623 2.77263 
846 1 1 -0.0134708 0.0274168 0.0039748 0 0 0 4.62079e-08 1.35971e-07 -1.4716e-07 -6.12063e-08 5.74367e-08 -3.31628e-08 -5.64742e-06 -1.08703e-05 6.03739e-06 0.004 432.439 2.19687 
348 1 1 -0.00329916 0.0260612 0.00393374 0 0 0 1.8968e-07 5.17683e-08 -2.57761e-07 3.37736e-08 -1.05618e-07 8.04503e-08 2.84885e-06 -1.52384e-05 4.45644e-05 0.004 525.196 0.560607 
786 1 1 0.00840353 0.0281551 0.00389685 0 0 0 4.33954e-07 -3.58826e-07 -3.55115e-07 -7.90888e-08 -3.5932e-07 -2.7015e-07 7.85228e-05 7.25484e-05 -4.72449e-05 0.004 611.961 -1.29551 
316 1 1 0.0162833 0.0272928 0.0039063 0 0 0 3.11564e-07 -2.38553e-06 -5.75913e-07 -3.49872e-08 1.83799e-06 8.58122e-07 0.000444189 5.77419e-05 -0.000455231 0.004 669.12 -2.33633 
495 1 1 0.0288861 0.0264617 0.00396716 0 0 0 1.27829e-06 -1.79606e-06 9.3731e-07 7.30772e-06 3.04804e-05 -3.53608e-08 0.000667736 -0.000267537 -0.000448607 0.004 731.86 -1.04017 
863 1 1 0.0367263 0.0277633 0.00392936 0 0 0 8.10705e-07 -1.16704e-06 9.08695e-08 1.27075e-07 6.83179e-06 1.07902e-07 0.000167063 0.000222037 0.000422854 0.004 752.267 -2.71952 
511 1 1 -0.00761835 0.0327132 0.00388553 0 0 0 7.423e-08 7.38826e-08 -1.49611e-07 -7.95117e-08 4.97625e-08 7.33178e-09 1.35882e-06 2.26788e-05 -2.74174e-05 0.004 497.278 1.12443 
722 1 1 0.00164033 0.0322874 0.00396635 0 0 0 2.84548e-07 8.87427e-09 -1.65857e-07 9.89181e-09 -1.85173e-07 1.65927e-07 -3.06228e-05 2.03994e-05 -3.34526e-05 0.004 563.373 -0.279003 
2 1 1 0.0229311 0.0316959 0.00396244 0 0 0 9.48197e-07 -1.12105e-06 -2.20773e-07 8.67875e-07 1.26828e-05 4.75647e-09 -0.000115203 7.57581e-06 0.000511418 0.004 698.429 -2.79078 
254 1 1 0.0305761 0.0342792 0.00398151 0 0 0 0.000577555 -0.000154943 -2.81902e-06 5.80182e-05 0.000348739 -1.17234e-05 0.0398019 0.144743 -0.0407711 0.004 798.161 -2.05284 
257 1 1 -0.0296322 0.0352231 0.00395613 0 0 0 5.56241e-08 4.67869e-08 -1.79519e-08 7.71714e-08 6.71349e-08 -7.1292e-08 -8.05005e-06 1.42201e-05 2.07066e-05 0.004 363.119 3.21534 
582 1 1 -0.0157655 0.0356206 0.00393205 0 0 0 1.04147e-07 3.43812e-07 -9.02765e-08 1.70775e-07 1.23994e-07 -7.94779e-08 -7.77097e-05 2.34786e-05 6.25612e-05 0.004 410.013 3.10807 
255 1 1 -0.00267125 0.038932 0.00391148 0 0 0 1.69295e-07 4.3408e-08 -2.10249e-07 7.48729e-09 -2.06286e-09 7.25833e-08 -1.00496e-05 3.21214e-05 2.18509e-05 0.004 527.117 0.539265 
887 1 1 0.00812084 0.0373183 0.00392889 0 0 0 4.98061e-07 -4.94033e-07 -2.02915e-07 -2.56159e-07 3.79713e-07 4.94521e-08 8.17853e-05 4.92132e-05 -0.000366322 0.004 624.426 -1.79549 
719 1 1 0.0157853 0.0351951 0.00398363 0 0 0 8.06269e-07 -1.89417e-06 1.31909e-07 -1.38815e-06 1.66492e-06 2.78607e-07 -7.19959e-06 4.33312e-05 6.52874e-05 0.004 667.888 -2.55084 
21 1 1 0.0234243 0.0396338 0.00391497 0 0 0 -1.76239e-07 -8.1409e-07 -4.96922e-07 -2.48226e-06 3.14295e-06 2.28585e-07 0.000187976 4.23175e-06 -0.000169542 0.004 699.406 -3.03526 
325 1 1 -0.0222388 0.0402984 0.00393951 0 0 0 2.59026e-08 8.17019e-08 -3.94237e-08 8.49522e-08 2.6325e-08 2.95278e-09 -1.35656e-05 1.83321e-05 1.82292e-05 0.004 399.044 3.24434 
595 1 1 -0.014931 0.0435393 0.00398254 0 0 0 -2.98301e-08 1.00279e-07 -1.2746e-07 1.75838e-08 4.77001e-08 -7.15713e-08 2.72543e-05 -3.17649e-06 -1.86998e-05 0.004 431.857 2.85604 
568 1 1 0.0162912 0.0430934 0.00392629 0 0 0 3.25799e-07 -4.53546e-07 -9.97007e-08 -2.28138e-07 1.37308e-06 -1.4704e-07 1.68672e-05 3.62091e-05 3.4205e-05 0.004 664.728 -2.54487 
387 1 1 -0.00719691 0.045487 0.00389932 0 0 0 3.86438e-08 2.04662e-08 -1.16363e-07 -4.26133e-08 1.14243e-08 -1.31593e-08 1.17023e-05 4.2974e-06 3.87599e-06 0.004 501.115 1.21247 
852 1 1 0.000758888 0.0460615 0.00397617 0 0 0 1.41894e-07 -1.48089e-07 -4.2856e-08 -1.60419e-07 8.52443e-08 -3.25222e-08 3.18137e-05 -2.25544e-05 -4.17203e-05 0.004 553.903 -0.0907389 
157 1 1 0.00865318 0.0452492 0.00389824 0 0 0 4.7303e-07 -2.84909e-07 -5.7347e-08 -5.65928e-07 1.07807e-07 -6.73281e-08 2.69215e-05 4.57678e-05 0.00011342 0.004 616.714 -1.58688 
400 1 1 -0.024752 -0.0387964 0.00974418 0 0 0 -4.05643e-08 -5.43632e-08 -8.96975e-08 3.67879e-08 9.31703e-08 1.26815e-07 -4.8647e-06 8.20496e-06 1.15105e-05 0.004 393.949 3.14124 
606 1 1 -0.000653937 -0.0387266 0.00813891 0 0 0 -5.12387e-08 -3.17898e-07 -4.15834e-07 2.54694e-08 3.02773e-07 4.28902e-07 -2.4618e-05 4.53854e-05 -3.60767e-05 0.004 549.866 0.120337 
724 1 1 -0.0339144 -0.0311598 0.00984801 0 0 0 -1.09022e-08 -9.59151e-08 -8.63756e-08 1.50473e-08 1.04432e-07 1.10267e-07 5.69735e-06 2.61801e-06 -6.64781e-06 0.004 354.027 2.80818 
183 1 1 0.0251947 -0.0311656 0.00751474 0 0 0 1.16677e-07 -1.86419e-07 -6.25712e-07 -1.80592e-07 3.88883e-08 4.46712e-07 -5.95525e-05 -1.44361e-05 4.83661e-06 0.004 706.95 -2.93094 
544 1 1 -0.0140218 -0.0253028 0.00874964 0 0 0 4.7469e-09 -3.41452e-07 -6.26697e-07 3.30388e-08 5.62347e-07 5.62246e-07 -1.61872e-05 2.99988e-05 -1.08437e-05 0.004 438.756 2.20857 
29 1 1 -0.00450628 -0.0263793 0.00900727 0 0 0 -2.13895e-08 -3.8747e-07 -8.11652e-07 1.5413e-08 5.48535e-07 7.62838e-07 5.23394e-05 4.56646e-05 -1.22542e-05 0.004 507.233 0.979889 
248 1 1 0.00349901 -0.0278426 0.00763307 0 0 0 1.81358e-08 -3.55528e-07 -8.80312e-07 -1.01145e-07 3.18978e-07 7.26711e-07 -0.000145929 -5.92172e-06 3.22107e-05 0.004 580.406 -0.701478 
79 1 1 0.035837 -0.0289489 0.00959646 0 0 0 6.6929e-08 -1.38051e-07 -3.43871e-07 -9.53337e-08 6.69254e-08 2.1814e-07 3.24783e-05 -8.75657e-05 2.76234e-05 0.004 742.105 -2.86419 
291 1 1 -0.00458871 -0.0173975 0.00909523 0 0 0 -1.92756e-08 -2.88572e-07 -9.59237e-07 -1.09725e-07 4.15326e-07 6.73864e-07 -2.62739e-05 1.55013e-05 7.82253e-06 0.004 514.653 0.69879 
891 1 1 0.00373489 -0.015528 0.00632507 0 0 0 7.00409e-09 -3.37347e-07 -1.00879e-06 -2.0285e-07 2.00092e-07 5.63048e-07 -8.40521e-05 -2.41254e-06 -2.84773e-05 0.004 580.201 -0.647387 
870 1 1 0.0138323 -0.0156364 0.00831016 0 0 0 2.61455e-07 -4.88907e-07 -1.42156e-06 -4.31839e-07 5.27608e-08 8.9788e-07 -5.72312e-06 -3.27578e-05 1.31198e-05 0.004 656.977 -2.07279 
777 1 1 0.034969 -0.018778 0.00771 0 0 0 8.5793e-08 -1.62482e-07 -2.06626e-07 -9.28291e-08 -1.92192e-07 9.5702e-08 2.26266e-05 -3.75001e-05 3.58777e-05 0.004 755.83 -2.62364 
837 1 1 -0.029449 -0.0146727 0.00803326 0 0 0 2.82422e-09 -9.5635e-08 -3.81578e-07 -1.32525e-08 1.51566e-07 2.68341e-07 2.5988e-05 -9.11716e-06 -5.24014e-06 0.004 354.187 2.48195 
445 1 1 -0.0181359 -0.0138493 0.00995275 0 0 0 1.15955e-07 -2.25511e-07 -9.54225e-07 -1.26229e-07 4.9539e-07 7.45026e-07 3.20589e-05 7.18348e-05 -2.68974e-05 0.004 408.685 2.31886 
783 1 1 0.00485899 -0.00860658 0.00993767 0 0 0 2.08204e-07 -5.54407e-07 -1.51344e-06 -5.46013e-07 3.05494e-07 8.22998e-07 5.09843e-05 -1.51568e-05 -4.58076e-05 0.004 591.667 -0.851309 
615 1 1 -0.0350999 -0.000758715 0.00955182 0 0 0 1.0266e-07 2.61821e-08 -3.68911e-07 4.58338e-08 1.61698e-07 2.00646e-07 6.43284e-06 2.24393e-05 -1.14662e-05 0.004 334.722 2.09865 
476 1 1 -0.0459522 0.00262139 0.00988978 0 0 0 1.23755e-08 9.74417e-09 -1.00238e-07 3.74395e-08 2.98112e-08 5.52913e-08 2.03533e-06 1.40751e-05 -1.68264e-07 0.004 318.017 1.74351 
16 1 1 -0.0210456 0.00169438 0.00830926 0 0 0 1.52954e-07 -1.0561e-08 -6.90361e-07 -4.33544e-08 2.20734e-07 4.02753e-07 1.94684e-05 1.86304e-05 -1.25388e-05 0.004 389.638 2.361 
303 1 1 0.0459492 0.00350463 0.00962656 0 0 0 5.89285e-07 -9.12735e-07 -1.96286e-07 6.49333e-08 -6.22811e-07 4.20663e-07 -1.88709e-05 -1.41305e-05 0.000139801 0.004 779.741 -1.85422 
523 1 1 -0.0389797 0.0080308 0.00932861 0 0 0 6.12427e-08 4.84432e-08 -2.27624e-07 3.11016e-08 1.21221e-07 7.76614e-08 -6.6957e-06 1.03059e-05 9.95637e-06 0.004 328.429 2.02739 
704 1 1 -0.010798 0.00519222 0.00743859 0 0 0 5.65265e-08 -1.43163e-08 -9.77172e-07 -2.82264e-07 1.36998e-07 4.33121e-07 8.00988e-05 4.05338e-05 -3.09158e-06 0.004 456.247 1.68018 
454 1 1 0.00101181 0.00715931 0.00933955 0 0 0 -2.65339e-07 -4.20419e-07 -1.06262e-06 -3.71771e-07 -3.40418e-07 3.3982e-07 -3.38705e-05 5.01233e-05 1.35754e-05 0.004 553.888 -0.0818039 
31 1 1 0.0102165 0.0054759 0.0083259 0 0 0 -4.02605e-07 -9.78703e-07 -1.66778e-06 2.97799e-07 -5.79432e-07 5.03064e-07 -9.38105e-05 0.000257774 9.0619e-06 0.004 630.414 -1.53691 
135 1 1 0.0188886 0.00749169 0.00960783 0 0 0 -1.14199e-07 -3.29523e-06 -9.52887e-07 7.08382e-07 2.02626e-07 6.78539e-07 0.000127456 9.89981e-05 0.000243068 0.004 703.576 -2.63445 
712 1 1 0.0281139 0.00743266 0.00998854 0 0 0 8.6532e-09 -2.56281e-06 -1.15163e-06 4.1164e-07 -1.46479e-06 1.81428e-06 0.000161406 0.000225018 1.86869e-05 0.004 739.036 -2.54568 
210 1 1 0.0394934 0.00814606 0.0098988 0 0 0 1.46316e-06 -1.96989e-06 -4.27558e-07 2.63413e-07 1.52379e-07 2.3182e-07 -0.000204701 2.32413e-05 -0.000130511 0.004 772.029 -2.08222 
651 1 1 -0.0437987 0.0143398 0.00823566 0 0 0 3.50208e-08 4.11117e-08 -6.45438e-08 -1.09442e-08 2.97234e-08 -1.93785e-08 -3.40462e-06 1.11081e-05 2.49707e-06 0.004 324.803 2.03079 
621 1 1 0.0437182 0.0147846 0.00900765 0 0 0 5.87092e-07 -1.42838e-06 -3.81888e-07 -4.97909e-07 1.09574e-06 -1.58502e-08 1.46145e-05 -0.000109232 0.000286214 0.004 769.825 -2.17954 
726 1 1 -0.0257657 0.0199972 0.00692824 0 0 0 1.20012e-07 8.46452e-08 -7.10538e-08 -3.53121e-08 5.08024e-08 -6.98304e-08 -7.06352e-06 -6.04405e-06 -6.1742e-06 0.004 369.113 2.73424 
230 1 1 -0.00847466 0.024595 0.00973775 0 0 0 2.23696e-07 2.43639e-07 -5.67033e-07 -4.11346e-08 2.13311e-07 2.23466e-08 -8.84324e-05 2.32134e-05 -2.94535e-05 0.004 489.49 1.25436 
320 1 1 -0.00171265 0.020405 0.00979385 0 0 0 1.95578e-07 2.95036e-07 -7.56951e-07 2.62582e-07 3.39401e-07 2.29338e-07 -4.42298e-05 5.05264e-05 5.64453e-05 0.004 537.283 0.316127 
7 1 1 0.0129211 0.0224303 0.00918518 0 0 0 6.83156e-07 -2.24943e-06 -7.13138e-07 -2.05748e-08 -7.2735e-07 1.21369e-07 -0.000123217 7.65293e-05 0.000204438 0.004 650.711 -1.94746 
83 1 1 0.0214164 0.0239651 0.00888425 0 0 0 6.44576e-08 -4.20321e-06 -1.01479e-06 1.76783e-06 7.78639e-06 -3.89439e-07 1.9333e-05 -6.25962e-05 0.000381711 0.004 707.206 -2.66838 
747 1 1 -0.0337321 0.0313835 0.00974072 0 0 0 7.25374e-08 6.18388e-08 -7.18125e-09 -1.75717e-08 1.04494e-07 -1.95356e-07 -2.77494e-06 1.04636e-05 1.07208e-05 0.004 356.923 2.84596 
51 1 1 -0.0226192 0.0329654 0.00703451 0 0 0 1.44913e-07 1.37294e-07 -5.73087e-08 1.14732e-07 6.24342e-08 -8.21355e-08 1.92504e-05 -1.70314e-05 5.67783e-06 0.004 383.025 3.1566 
116 1 1 -0.00940735 0.0391203 0.00809817 0 0 0 2.26594e-07 1.34884e-07 -1.62846e-07 -2.19357e-08 7.84462e-08 -5.62578e-09 -3.64968e-05 2.81215e-05 2.69607e-05 0.004 491.499 1.35063 
205 1 1 -0.000560455 -0.0460776 0.0110171 0 0 0 -5.2849e-08 -1.60072e-07 -1.88329e-07 4.37241e-08 1.96134e-07 2.61768e-07 -3.43333e-05 -2.79736e-05 2.29513e-05 0.004 551.13 0.109219 
836 1 1 0.00737985 -0.0454688 0.0106611 0 0 0 -6.59485e-09 -1.55193e-07 -2.39288e-07 -2.13986e-08 1.48592e-07 2.42269e-07 -2.61974e-05 3.04626e-05 2.1997e-06 0.004 592.094 -0.993639 
486 1 1 -0.0156916 -0.0402432 0.0103352 0 0 0 -9.67072e-08 -8.96843e-08 -1.36805e-07 6.80194e-08 2.8725e-07 2.84108e-07 -2.50881e-05 2.09901e-05 -3.9932e-05 0.004 436.043 2.69416 
311 1 1 -0.0083681 -0.0439882 0.0106791 0 0 0 -1.50922e-08 -2.55659e-07 -2.23787e-07 -6.68197e-09 4.03741e-07 2.93197e-07 2.81505e-05 -2.40018e-05 7.97611e-06 0.004 485.577 2.1739 
447 1 1 0.0180551 -0.0423881 0.0118323 0 0 0 2.37763e-08 -1.5545e-07 -2.56288e-07 -6.33321e-08 1.32407e-07 2.37908e-07 -2.72463e-05 -4.1484e-05 1.81316e-05 0.004 651.827 -2.36552 
538 1 1 -0.0295743 -0.035351 0.0149849 0 0 0 -4.14749e-09 -9.43494e-08 -1.00055e-07 3.60392e-08 1.2698e-07 1.45912e-07 -1.19531e-05 1.08667e-05 -5.05141e-06 0.004 370.541 2.98024 
279 1 1 0.011155 -0.0385417 0.0114152 0 0 0 3.98241e-08 -3.30962e-07 -6.12998e-07 -1.06184e-07 3.06916e-07 5.64355e-07 -1.5639e-06 -1.82431e-05 -4.4701e-06 0.004 620.995 -1.6585 
110 1 1 0.0250464 -0.0386627 0.0117241 0 0 0 4.83134e-08 -1.68781e-07 -2.37242e-07 -7.60451e-08 1.11198e-07 1.81307e-07 -6.81138e-06 -3.86234e-06 -3.50307e-06 0.004 688.214 -2.88463 
188 1 1 -0.0179041 -0.0321007 0.0101564 0 0 0 1.29958e-08 -2.89336e-07 -3.96766e-07 4.24849e-08 5.27584e-07 4.79456e-07 9.7575e-06 1.35691e-05 -1.3215e-06 0.004 420.737 2.57705 
810 1 1 -0.0102601 -0.034451 0.0102036 0 0 0 9.2133e-09 -3.26268e-07 -4.85726e-07 -2.62169e-09 5.55086e-07 6.03381e-07 8.04959e-07 3.66411e-05 -2.67487e-05 0.004 469.083 1.88027 
412 1 1 -0.00316744 -0.0328806 0.0133526 0 0 0 8.42248e-08 -4.51553e-07 -9.3795e-07 -8.39947e-08 7.00471e-07 1.00666e-06 -2.56217e-05 2.61909e-05 -2.26844e-06 0.004 517.554 0.791484 