ITEM: TIMESTEP
20800
ITEM: NUMBER OF ATOMS
891
ITEM: BOX BOUNDS mm mm mm
-0.05 0.05
-0.05 0.05
0 0.15
ITEM: ATOMS id type type x y z ix iy iz vx vy vz fx fy fz omegax omegay omegaz radius f_Temp[0] f_heatFlux[0] 
199 1 1 -0.00444379 -0.0458158 0.0039743 0 0 0 -1.28805e-05 3.70272e-05 6.89119e-07 2.19899e-05 -1.7386e-05 3.88496e-05 -0.00394984 -0.00425602 0.00434708 0.004 343.991 36.6897 
873 1 1 -0.0201484 -0.0414789 0.00390157 0 0 0 7.47433e-06 9.39581e-06 1.8382e-07 7.49344e-06 7.92037e-06 1.17167e-05 0.00106797 0.00326021 0.000472254 0.004 300.172 0.62717 
485 1 1 -0.0126797 -0.0442534 0.0039726 0 0 0 -4.95242e-06 1.5018e-05 9.82127e-06 3.06031e-05 -1.40437e-05 2.94948e-05 -0.00236407 -0.00722421 0.00049793 0.004 300.944 2.57724 
850 1 1 0.00335639 -0.0441759 0.00394108 0 0 0 -9.0506e-06 3.28124e-06 5.21224e-06 -1.88141e-05 3.12657e-06 2.98933e-05 -0.00178993 -6.35014e-05 -0.0259698 0.004 708.92 -73.6781 
186 1 1 0.0114401 -0.0445988 0.00392823 0 0 0 -1.16508e-05 8.43697e-06 3.24059e-06 -3.28887e-05 2.47255e-06 3.55337e-06 0.00071797 -0.0062933 0.0010571 0.004 794.99 -9.96973 
560 1 1 0.018969 -0.0420006 0.00394673 0 0 0 -2.16259e-06 2.20456e-06 -2.36097e-06 -3.01443e-06 2.05643e-05 8.72739e-06 -0.00359334 0.0083643 -0.00251993 0.004 799.178 -2.34498 
102 1 1 -0.0147502 -0.0357331 0.00386306 0 0 0 6.18692e-06 2.34678e-05 1.26748e-05 1.16658e-05 6.29704e-06 1.5918e-05 -0.00278231 -0.00117718 -0.000373031 0.004 302.17 5.50406 
88 1 1 -0.00730763 -0.0383837 0.00392721 0 0 0 6.40588e-06 3.10286e-05 6.17232e-06 3.34388e-06 1.3291e-05 3.38201e-05 -0.0037485 0.00482612 0.0018809 0.004 317.647 27.6259 
776 1 1 0.00520386 -0.0354368 0.00395018 0 0 0 1.02508e-05 5.84213e-05 2.68488e-05 -2.10534e-05 1.40462e-05 -7.55399e-06 -0.0103124 0.00721502 -0.00807689 0.004 702.09 -61.5232 
410 1 1 0.0130237 -0.0368132 0.00392567 0 0 0 -1.33323e-05 1.91576e-05 2.16369e-06 -9.84456e-06 -2.00168e-06 -1.35389e-06 -0.00396341 -0.00262633 -0.000747547 0.004 791.386 -15.0586 
282 1 1 0.025876 -0.0381319 0.00388525 0 0 0 -2.55982e-05 -2.33273e-05 -1.82298e-05 6.63454e-06 3.38079e-05 5.14392e-05 0.00318133 -0.00945689 0.00400359 0.004 799.957 -0.171912 
682 1 1 -0.0302016 -0.0348779 0.00393464 0 0 0 1.72842e-06 -1.79536e-06 3.74867e-06 2.27469e-06 -1.28257e-06 2.70256e-06 0.000552592 -0.000710815 -0.00100751 0.004 300.007 0.030988 
251 1 1 -0.0224189 -0.0338476 0.00392331 0 0 0 2.71721e-06 1.27924e-05 1.15405e-05 4.23641e-06 6.62578e-06 1.59241e-05 -0.00133737 0.000185502 0.00454529 0.004 300.13 0.477524 
770 1 1 -0.00204755 -0.0321408 0.00393962 0 0 0 1.03833e-05 7.85793e-05 2.81092e-05 7.45262e-06 2.33164e-05 -7.1322e-06 -0.0143054 0.00108491 0.00903689 0.004 410.73 84.4456 
883 1 1 0.018166 -0.0307536 0.00390018 0 0 0 -1.85157e-05 -2.27868e-05 -8.1059e-06 2.38892e-05 1.83641e-05 1.17871e-05 0.00764205 0.0020347 -0.0101102 0.004 798.817 -3.16212 
838 1 1 0.0320336 -0.033109 0.00396068 0 0 0 -1.66671e-05 -5.16769e-06 -5.04206e-06 3.75591e-05 3.18743e-05 0.000101878 -0.00030952 -0.000247633 0.00249112 0.004 799.997 -0.0158002 
617 1 1 -0.0372521 -0.0271215 0.00391646 0 0 0 3.32514e-06 -1.79948e-09 6.56513e-06 -2.25154e-07 7.60901e-06 1.66711e-06 0.000806149 -0.000489722 -0.000242496 0.004 300 0.000267502 
824 1 1 -0.0292998 -0.0270299 0.00392982 0 0 0 6.28678e-06 -1.29425e-06 1.11869e-05 -6.54232e-06 1.08428e-05 1.50708e-05 0.00167912 0.000836969 0.00016185 0.004 300.001 0.00536858 
571 1 1 -0.0202615 -0.0262215 0.00393281 0 0 0 -6.62022e-06 1.31471e-05 2.3619e-05 -1.35163e-05 2.67585e-05 2.83368e-05 0.000231291 -0.00361892 -0.00236092 0.004 300.087 0.327805 
861 1 1 -0.00959296 -0.0297305 0.00389694 0 0 0 -3.82218e-07 2.71422e-05 2.39528e-05 1.58676e-05 2.41536e-05 1.90603e-05 -0.000917247 -0.00168633 0.00314406 0.004 310.227 18.5652 
434 1 1 0.0103455 -0.0293807 0.00393738 0 0 0 -4.3786e-06 2.33925e-05 1.67948e-06 2.064e-05 -2.05654e-06 -1.04331e-05 -0.0035291 0.00115044 0.000558448 0.004 784.691 -24.856 
103 1 1 0.0311547 -0.0252348 0.0039436 0 0 0 -1.98683e-05 5.36628e-06 1.18689e-05 7.45962e-05 9.92694e-05 3.96579e-05 -0.00198046 -0.00591794 0.000763629 0.004 799.994 -0.0247023 
769 1 1 -0.041344 -0.0202818 0.0039823 0 0 0 2.90872e-06 7.59157e-07 6.52535e-06 -8.32785e-07 1.09425e-05 5.78998e-06 0.000695833 -0.00115997 -0.000125729 0.004 300 4.0302e-05 
94 1 1 -0.0333714 -0.0202163 0.00394368 0 0 0 6.83002e-06 2.89709e-06 1.60756e-05 1.92531e-06 1.74781e-05 6.73794e-06 -0.000381375 -0.000645908 -8.35417e-05 0.004 300 0.00181524 
40 1 1 -0.025401 -0.0201464 0.00391759 0 0 0 6.57672e-06 3.63553e-06 2.18291e-05 -1.02956e-06 2.29206e-05 1.0146e-05 0.000601178 -0.000604625 0.000236859 0.004 300.009 0.0420913 
19 1 1 -0.00865075 -0.0218805 0.00393964 0 0 0 -1.02549e-05 2.39317e-05 3.52968e-05 3.38205e-05 1.91237e-05 -8.47312e-06 -0.00100099 -0.00548511 -0.0022107 0.004 309.197 16.9014 
442 1 1 -0.000437016 -0.02185 0.00393577 0 0 0 -1.80734e-05 1.03262e-05 3.38952e-05 7.26843e-05 9.9598e-06 -8.2203e-06 0.00246815 -0.0029635 -0.00699349 0.004 399.964 77.966 
259 1 1 0.00753186 -0.0220001 0.00392511 0 0 0 -1.32308e-05 2.1262e-06 5.17993e-06 0.000103993 1.36366e-06 -4.51901e-05 0.00403653 0.00633522 0.00456211 0.004 753.779 -38.6451 
512 1 1 0.0153882 -0.0232356 0.00397834 0 0 0 -3.24801e-05 -2.0543e-05 -2.99113e-05 6.2721e-05 -3.90979e-05 -2.01997e-05 -0.00073704 0.00117461 -0.00957652 0.004 796.389 -7.05573 
470 1 1 0.0232616 -0.024359 0.00390809 0 0 0 -4.99529e-05 -3.12959e-05 -2.72276e-05 7.48633e-05 -3.72591e-06 5.67068e-05 0.00618703 -0.0089735 0.00536815 0.004 799.843 -0.471131 
451 1 1 0.0390293 -0.0244875 0.00392052 0 0 0 -1.79219e-05 2.51047e-05 1.13469e-05 7.13931e-05 3.90417e-05 -2.29082e-05 -0.0157753 0.00327653 -6.54898e-06 0.004 800 -0.0012365 
531 1 1 -0.0164595 -0.0192005 0.00396124 0 0 0 -1.17808e-05 2.24399e-05 1.16301e-05 1.10823e-05 1.05112e-05 1.14282e-05 -0.00630102 -0.00175067 0.00419366 0.004 300.407 1.12686 
229 1 1 0.0202059 -0.0169136 0.0038687 0 0 0 -4.71361e-05 -4.46341e-05 -5.63683e-05 4.08717e-05 -5.16984e-05 4.8968e-05 0.00540358 -0.00143603 0.00425305 0.004 799.734 -0.854153 
734 1 1 0.0280521 -0.0179421 0.00394392 0 0 0 -6.60793e-05 -1.39977e-05 -5.39178e-05 -1.94907e-05 -3.25335e-05 6.0203e-05 0.00247765 -0.00826767 0.0171709 0.004 799.989 -0.0485784 
635 1 1 0.0425981 -0.0174495 0.0039219 0 0 0 -1.55212e-05 5.21792e-06 -5.84406e-05 3.85805e-05 -6.69706e-05 0.000106062 -0.00589894 -0.00773964 -0.00359584 0.004 800 -5.01799e-05 
87 1 1 -0.0448224 -0.010464 0.0039142 0 0 0 3.10467e-06 1.51277e-07 4.00185e-06 8.52756e-06 3.55858e-06 1.51753e-06 0.000103099 0.000333876 0.00132511 0.004 300 2.37066e-06 
406 1 1 -0.0373951 -0.013391 0.00396015 0 0 0 6.08991e-06 3.3377e-06 9.0035e-06 1.62931e-05 1.1198e-05 1.7454e-06 -0.000912679 0.00104261 0.000306126 0.004 300 6.74636e-05 
224 1 1 -0.023058 -0.0126019 0.00387957 0 0 0 8.22149e-06 7.05049e-07 2.90515e-05 3.96176e-05 3.14346e-05 1.23433e-05 0.000606186 0.00226241 0.00290938 0.004 300.095 0.346164 
751 1 1 -0.0102997 -0.0141546 0.00396943 0 0 0 -1.8397e-05 2.56034e-05 2.85289e-05 4.06061e-05 -1.58108e-06 -7.51015e-06 -0.00056922 -0.00777916 0.000827916 0.004 309.218 15.31 
622 1 1 -0.0027339 -0.011741 0.00388526 0 0 0 -1.86613e-05 1.5493e-05 3.32522e-05 4.52869e-05 5.37693e-06 -3.10853e-05 -0.00676428 0.00327147 -0.0026029 0.004 413.515 65.9111 
128 1 1 0.00951062 -0.0106851 0.00388457 0 0 0 -3.78347e-05 3.41599e-05 -4.00316e-05 6.34056e-05 -1.1856e-05 2.47512e-05 -0.00536171 0.00167493 0.0125986 0.004 788.738 -18.9907 
68 1 1 0.0262808 -0.010211 0.00395424 0 0 0 -8.15739e-05 1.7911e-05 -8.06287e-05 1.41324e-05 -2.82493e-05 0.000165128 6.89157e-05 -0.0239871 -0.0156839 0.004 799.997 -0.0148625 
791 1 1 0.0340946 -0.0118533 0.00392778 0 0 0 -5.82079e-05 3.90354e-05 4.46078e-05 -0.0001477 6.44862e-05 0.000190194 -0.0174948 -0.0102808 0.00477127 0.004 800 -0.000395205 
354 1 1 -0.0380749 -0.00550397 0.00392042 0 0 0 -4.32814e-06 -7.98382e-07 6.83697e-06 2.9536e-05 4.83981e-06 -3.37655e-07 0.000248281 -0.00225585 0.00101955 0.004 300 7.66119e-05 
725 1 1 -0.0304901 -0.00800534 0.00392519 0 0 0 1.01139e-05 1.88687e-06 1.81547e-05 2.51673e-05 2.02998e-05 -2.06746e-07 -0.00286603 0.00258319 0.00253456 0.004 300 0.0015406 
353 1 1 -0.0161288 -0.00879815 0.00391141 0 0 0 -1.19743e-05 1.52916e-05 1.71372e-05 4.70212e-05 1.7622e-05 7.3744e-06 -0.000488372 0.00146799 0.00135902 0.004 301.361 3.57212 
391 1 1 -0.00857663 -0.00639751 0.00391358 0 0 0 -3.53347e-05 3.18067e-05 1.35701e-05 3.94515e-05 -9.5518e-06 -1.37188e-05 -0.0065688 -0.00740147 0.00530326 0.004 314.939 24.5454 
683 1 1 0.0173533 -0.0094563 0.00390983 0 0 0 -6.58104e-05 -4.69659e-06 -4.26409e-05 6.09261e-05 -2.45792e-05 6.53667e-05 0.000671381 -0.0110757 -0.0229148 0.004 799.363 -1.77658 
690 1 1 0.0385537 -0.00520137 0.00389999 0 0 0 -2.4758e-05 3.25855e-05 7.59096e-06 -6.94956e-05 1.91936e-05 0.000175344 -0.0132898 -0.00575709 -0.01417 0.004 800 -8.92415e-05 
10 1 1 0.0449635 -0.00990885 0.00397392 0 0 0 -6.14357e-06 -2.87107e-05 3.17998e-06 -2.52522e-05 -4.64472e-05 0.000141514 0.0182809 -0.00119485 0.000863502 0.004 800 -3.70465e-06 
402 1 1 -0.046017 -0.00264173 0.00392183 0 0 0 -4.36589e-06 8.03476e-07 1.06802e-06 1.23648e-05 -1.71319e-06 -5.76812e-07 -0.000972053 -0.000834751 0.000256192 0.004 300 1.5997e-05 
761 1 1 -0.0294744 -0.000168359 0.00392561 0 0 0 -8.16224e-06 3.68043e-07 1.42833e-05 3.02468e-05 7.96587e-06 8.45373e-06 0.000632787 -0.00241376 0.00137091 0.004 300.003 0.0159228 
293 1 1 -0.0229324 -0.00466878 0.00395948 0 0 0 -6.75282e-06 8.26341e-06 1.89775e-05 3.94586e-05 3.12456e-05 8.8741e-06 -0.00149056 -0.00039617 0.000452952 0.004 300.052 0.200361 
384 1 1 -0.0147037 -0.00088746 0.0039815 0 0 0 -0.000883549 0.000686052 -2.09915e-08 2.40497e-12 -1.88103e-12 2.72368e-08 -0.171911 -0.221399 0.233621 0.004 300 0 
378 1 1 0.00130606 -0.00490405 0.00392913 0 0 0 -3.83057e-05 5.77748e-06 -1.37346e-05 0.000102637 -5.00777e-05 -3.56371e-05 0.00134871 -0.00300035 0.0009103 0.004 690.067 -77.5564 
390 1 1 0.0103706 -0.00276537 0.00396889 0 0 0 -6.96467e-05 5.31801e-05 -3.40758e-05 0.000107511 1.54276e-05 -1.58225e-05 -0.000819179 0.00119637 -0.00118794 0.004 798.37 -4.41046 
411 1 1 0.0223603 -0.0032929 0.00397615 0 0 0 -6.89985e-05 1.71001e-05 -8.34241e-05 2.48418e-05 3.87165e-05 0.000119073 -0.00634592 -0.00458748 0.0205178 0.004 799.972 -0.1078 
342 1 1 0.0307348 -0.00361662 0.00397503 0 0 0 -2.54414e-05 2.9042e-05 1.01067e-05 7.7315e-05 -2.64622e-05 0.000267068 -0.00224282 -0.0118453 0.00271378 0.004 800 -0.000461444 
262 1 1 0.0460221 -0.002065 0.00395825 0 0 0 -1.05692e-06 -2.51587e-05 1.67572e-05 -1.37755e-05 -5.04302e-05 7.45488e-05 -0.00521361 0.00522704 0.00466495 0.004 800 -2.50546e-06 
261 1 1 -0.0398214 0.002246 0.00393475 0 0 0 -8.14333e-06 -2.7118e-06 4.39604e-06 2.08591e-05 -3.97088e-06 6.74651e-06 0.000620873 -0.00140634 -0.000366583 0.004 300 0.000414789 
666 1 1 -0.00454677 0.000451387 0.00395605 0 0 0 -3.10366e-05 2.84145e-05 1.70995e-05 3.95507e-05 -1.04134e-05 -9.17326e-06 0.00181468 -0.00230839 -0.00798996 0.004 363.575 50.1311 
815 1 1 0.00434367 0.00243559 0.00392708 0 0 0 -9.07946e-05 2.20723e-05 7.92041e-06 6.50607e-05 -2.55646e-05 -8.10414e-06 0.00178773 -0.0128784 0.0142944 0.004 774.289 -40.5201 
306 1 1 0.01637 0.00247661 0.00395809 0 0 0 -0.000120085 7.18359e-05 -5.71799e-05 8.87956e-05 1.12246e-05 1.08894e-08 -0.0191661 -0.0228259 0.00595219 0.004 799.863 -0.445116 
178 1 1 0.0241042 0.00444168 0.00386106 0 0 0 -7.2298e-05 2.96668e-05 -7.64878e-05 -1.62687e-05 4.98089e-05 9.59592e-05 -0.00119594 -0.0102174 -0.0142847 0.004 799.985 -0.0606361 
862 1 1 0.0320657 0.00423368 0.00393078 0 0 0 -1.72464e-05 3.118e-05 -3.60923e-05 -4.41828e-05 9.91068e-07 0.000214818 -0.0104142 -0.00365232 0.0138856 0.004 800 -0.00221816 
661 1 1 0.0398756 0.00291478 0.00394665 0 0 0 1.07816e-05 8.36446e-06 -5.01998e-06 -8.69358e-06 -4.01432e-05 0.000154293 -0.00417702 -0.000927973 -0.0201926 0.004 800 -7.60114e-05 
677 1 1 -0.0453782 0.0078854 0.00393641 0 0 0 -4.60453e-06 1.18664e-07 1.42989e-06 5.38537e-06 -6.41122e-06 5.56029e-06 -0.000123558 -0.000861671 -0.00036922 0.004 300 1.398e-05 
12 1 1 -0.0333161 0.00671959 0.00393694 0 0 0 -1.17643e-05 -3.56926e-06 7.3455e-06 1.5203e-05 -1.50174e-06 1.30551e-05 -0.000275374 -0.00102256 0.000810905 0.004 300.002 0.0089883 
420 1 1 -0.0253999 0.00664835 0.00392684 0 0 0 -1.50231e-05 8.12362e-06 1.40587e-05 1.43977e-05 1.62295e-05 1.9723e-05 -0.00317499 -0.00270856 0.000620317 0.004 300.05 0.183257 
654 1 1 -0.0175134 0.00720943 0.0038721 0 0 0 -2.17213e-05 2.33054e-05 3.50006e-05 1.35476e-05 1.34608e-05 1.12175e-05 -0.00539013 -0.00485052 0.00210714 0.004 300.948 2.43506 
145 1 1 -0.00454404 0.00836535 0.0038631 0 0 0 -4.33584e-05 4.25202e-05 1.35299e-05 -1.11905e-06 -2.30003e-05 -7.00402e-06 -0.0106221 -0.00707545 0.0124267 0.004 364.433 42.4604 
624 1 1 0.0451449 0.00890661 0.00390648 0 0 0 2.58718e-05 -4.03028e-06 -4.15994e-06 3.40533e-06 -0.00011445 8.9466e-05 0.00211747 0.00532358 0.0139211 0.004 800 -1.13082e-05 
613 1 1 -0.0372991 0.0135339 0.00384342 0 0 0 -7.48958e-06 -6.0444e-06 8.62873e-06 6.72768e-06 -6.58308e-06 1.05407e-05 0.00234797 -0.00146872 -0.00206144 0.004 300 0.000577318 
265 1 1 -0.0293062 0.0135429 0.00396371 0 0 0 -1.4397e-05 1.35455e-06 -2.04169e-07 1.6505e-05 -2.55453e-06 2.35874e-05 -0.000885573 0.000250833 0.0013976 0.004 300.003 0.015394 
273 1 1 -0.0213694 0.0141274 0.00392937 0 0 0 -2.21022e-05 1.28173e-05 6.53813e-06 2.69356e-05 1.28673e-06 2.60022e-05 -0.00453689 -0.00282417 -0.00089118 0.004 300.051 0.193498 
492 1 1 -0.01145 0.0123712 0.00398077 0 0 0 -5.08276e-06 1.68345e-05 2.17795e-05 3.42792e-05 -2.88968e-05 1.07405e-05 0.000972348 0.00406819 -0.00921503 0.004 303.423 6.58093 
234 1 1 0.00585287 0.0103929 0.0039289 0 0 0 -5.22644e-05 5.10475e-06 -7.46295e-06 7.26362e-06 3.19692e-06 -5.2911e-06 -0.00224064 -0.00420082 0.0115032 0.004 733.133 -55.7417 
160 1 1 0.0142843 0.0106356 0.00390955 0 0 0 -5.12812e-05 6.33612e-06 -3.66695e-05 3.46089e-07 3.65178e-05 2.01838e-05 -0.00483286 -0.00724502 0.020892 0.004 798.213 -4.7517 
484 1 1 0.0220893 0.0120737 0.00390115 0 0 0 -8.75986e-06 2.42735e-05 -5.94239e-05 -4.08722e-05 8.19411e-05 3.82201e-05 -0.000136119 0.00138208 -0.0131996 0.004 799.902 -0.359092 
743 1 1 0.0300185 0.0126214 0.00398119 0 0 0 6.31427e-07 -5.40692e-05 -2.72789e-05 -0.000100955 0.000264707 0.000105014 0.0127625 -0.00831098 -0.00439715 0.004 799.996 -0.0189066 
514 1 1 0.0379537 0.0130187 0.0038689 0 0 0 2.2528e-05 -9.4343e-06 -1.95873e-05 -7.66808e-05 -3.0181e-05 0.000127333 -3.69527e-05 0.00626313 0.00992864 0.004 800 -0.000814474 
530 1 1 -0.0159002 0.0198648 0.00392794 0 0 0 -1.96212e-05 3.41751e-06 -3.88195e-06 4.95598e-05 -1.62952e-05 2.04639e-05 0.00131415 -0.000373728 9.51734e-05 0.004 300.209 0.760555 
227 1 1 -0.00736508 0.0192084 0.00396589 0 0 0 3.0948e-06 2.17772e-05 6.59433e-06 5.78872e-05 -6.37411e-05 3.95789e-05 -0.00265601 0.00332382 0.0088672 0.004 312.578 21.2817 
392 1 1 -0.000498618 0.0151513 0.00394446 0 0 0 -2.83319e-05 2.00732e-05 -1.84846e-06 3.72995e-06 -3.8368e-05 -3.19769e-06 5.20341e-05 -0.00465116 -0.0199054 0.004 416.436 72.3048 
493 1 1 0.00985838 0.0172531 0.00394642 0 0 0 -2.00757e-05 -2.75536e-05 1.5834e-06 -1.3797e-05 3.08305e-05 1.73992e-05 0.0110712 0.000387176 -0.0210191 0.004 782.367 -28.3096 
34 1 1 0.0176357 0.0187852 0.00394094 0 0 0 1.57211e-06 -5.5938e-05 -9.31655e-06 -2.63773e-05 8.9534e-05 1.47741e-05 0.0100451 0.0033572 0.00882337 0.004 798.716 -3.47573 
206 1 1 0.0255398 0.0192352 0.00396989 0 0 0 1.27696e-05 -2.42884e-05 -2.12742e-05 -4.9491e-05 7.86545e-05 6.31686e-06 0.00663074 -0.000702381 0.00202299 0.004 799.938 -0.234569 
104 1 1 0.0334175 0.0199347 0.0038964 0 0 0 1.70875e-05 -5.9012e-06 -3.90081e-05 -3.26147e-05 -5.27906e-05 6.40202e-05 0.00106536 0.00476201 -0.000359344 0.004 799.998 -0.012002 
809 1 1 -0.0412058 0.0204949 0.00395497 0 0 0 -6.57246e-06 -7.20563e-07 2.83968e-06 9.09903e-07 -7.18338e-06 5.89711e-06 -0.00111498 -0.00114016 0.00133158 0.004 300 1.52583e-05 
773 1 1 -0.0331523 0.0204531 0.00393519 0 0 0 -1.69769e-05 -9.84395e-06 1.82992e-06 1.26983e-05 -7.65891e-06 2.7585e-05 0.000246097 -0.000977712 0.0014715 0.004 300 0.00162445 
792 1 1 0.00347672 0.0219736 0.00392103 0 0 0 1.2003e-06 -6.03254e-06 1.2557e-05 2.46818e-05 -2.81583e-05 9.05937e-07 -0.000881243 -0.00056481 0.0108196 0.004 672.714 -67.8124 
718 1 1 0.0413199 0.020366 0.00392984 0 0 0 1.34036e-05 -2.1792e-07 -2.82614e-05 -5.62211e-06 -5.26508e-05 2.61456e-05 -0.000350152 -0.00203428 0.00231309 0.004 800 -0.000488917 
101 1 1 -0.0371146 0.0272995 0.003904 0 0 0 -6.6964e-06 -6.28934e-06 2.95196e-06 5.21467e-06 -5.43323e-06 1.05841e-05 0.000966221 -0.00125434 -0.00304941 0.004 300 0.000245819 
246 1 1 -0.0290567 0.0272807 0.00398269 0 0 0 -4.43309e-05 -1.02142e-05 6.83547e-07 7.34416e-06 1.34175e-05 1.72554e-05 0.000378455 -0.00687228 0.00509296 0.004 300.002 0.00909212 
331 1 1 -0.0212281 0.0257799 0.00390013 0 0 0 -2.30042e-05 7.63182e-06 1.7397e-05 2.98157e-05 -5.68272e-06 3.94413e-05 -0.00057178 -0.00143693 0.00307577 0.004 300.082 0.302686 
846 1 1 -0.0134709 0.0274169 0.00397473 0 0 0 6.77463e-06 -1.49516e-05 8.15439e-06 6.82915e-05 -3.94771e-05 5.30421e-05 0.0038398 0.00203734 -0.0110835 0.004 301.783 4.64296 
348 1 1 -0.00329924 0.0260612 0.00393369 0 0 0 3.89753e-06 -4.5062e-08 1.27669e-06 6.18762e-05 -6.86172e-05 3.51922e-05 -0.000447501 -0.000885932 -0.0125963 0.004 401.68 60.4904 
786 1 1 0.00840346 0.0281551 0.00389681 0 0 0 2.01792e-06 -3.27459e-05 9.08116e-06 4.20599e-05 -3.00353e-05 -4.46261e-06 0.00524344 0.00305387 -0.0139704 0.004 776.788 -35.8292 
316 1 1 0.0162832 0.0272928 0.00390626 0 0 0 -8.32904e-06 -4.31283e-05 -3.66729e-05 3.65551e-05 1.94916e-05 7.83849e-06 0.00922139 0.00626971 0.013036 0.004 798.429 -4.09891 
495 1 1 0.0288861 0.0264618 0.00396711 0 0 0 -1.55025e-05 -1.17861e-05 -2.34035e-05 3.02576e-05 2.90897e-06 1.5447e-05 -0.00353054 -0.00129037 0.00954197 0.004 799.996 -0.0192409 
863 1 1 0.0367263 0.0277633 0.00392934 0 0 0 -8.28264e-07 1.43665e-05 -2.12792e-05 1.69057e-05 -2.29659e-05 -3.20549e-06 -0.00198398 0.000604322 -0.00261827 0.004 800 -0.0006791 
511 1 1 -0.00761847 0.0327133 0.00388545 0 0 0 1.72833e-05 -1.15999e-05 1.24053e-05 9.75675e-05 -7.53645e-05 5.77424e-05 0.00301016 0.00318968 0.00927837 0.004 324.894 38.4452 
722 1 1 0.00164023 0.0322875 0.00396632 0 0 0 1.02163e-05 -1.78393e-05 2.04123e-05 6.02197e-05 -4.02775e-05 1.08095e-05 0.0072213 -0.00340921 0.00615593 0.004 688.877 -76.6048 
2 1 1 0.022931 0.0316959 0.00396243 0 0 0 -4.87317e-05 -3.94769e-05 -8.4724e-06 4.54202e-05 3.19393e-05 -1.86735e-05 0.0136808 -0.00928046 -0.00182852 0.004 799.938 -0.237441 
254 1 1 0.0305801 0.0343373 0.0039815 0 0 0 -0.000818632 0.000870518 -1.58611e-09 1.7855e-13 -1.83792e-13 1.34612e-08 -0.218134 -0.205132 -0.0703935 0.004 800 0 
257 1 1 -0.0296322 0.0352231 0.00395612 0 0 0 -3.39849e-05 -1.33872e-05 1.21331e-05 1.76218e-06 -1.88365e-06 -4.02171e-06 0.00295682 -0.00770849 -0.0095555 0.004 300.001 0.00306354 
582 1 1 -0.0157655 0.0356206 0.003932 0 0 0 -7.32308e-05 -1.59822e-05 1.31038e-05 1.50926e-05 -1.89464e-05 2.72225e-05 0.00229655 -0.0165117 -0.00670958 0.004 300.123 0.395389 
255 1 1 -0.00267133 0.038932 0.00391141 0 0 0 -3.6132e-06 -5.04191e-06 2.15181e-05 7.34803e-05 -4.64576e-05 3.2903e-05 -0.00108775 -0.00110285 -0.00123296 0.004 415.335 69.6662 
887 1 1 0.00812078 0.0373183 0.00392885 0 0 0 -1.60633e-05 -3.27851e-05 8.05828e-06 2.02897e-05 -2.67266e-05 5.39742e-07 0.00692214 -0.000890271 0.00813874 0.004 794.241 -11.3954 
719 1 1 0.0157852 0.0351951 0.00398363 0 0 0 -2.94518e-05 -2.50331e-05 -1.72982e-06 4.59624e-06 -1.71884e-06 -1.94151e-05 0.00208533 -0.00134372 -0.00760293 0.004 799.639 -1.15243 
21 1 1 0.0234243 0.0396338 0.00391497 0 0 0 -1.39054e-05 3.63306e-06 4.51298e-06 4.18119e-06 -2.87491e-06 -1.32522e-05 -0.00544031 -0.00108921 -0.0026338 0.004 799.95 -0.190755 
325 1 1 -0.0222388 0.0402984 0.0039395 0 0 0 -3.3938e-05 -6.99468e-06 2.73898e-06 5.51821e-06 -2.80798e-07 -2.10395e-06 0.00386084 -0.00469055 -0.0088783 0.004 300.048 0.158374 
595 1 1 -0.014931 0.0435393 0.00398251 0 0 0 -1.70758e-05 -1.00777e-05 7.58356e-06 5.0041e-06 -1.20426e-05 1.95916e-05 -0.0020424 0.000283714 -0.00336782 0.004 302.184 4.27767 
568 1 1 0.0162912 0.0430934 0.00392628 0 0 0 -8.623e-06 -9.61115e-06 3.49573e-06 -9.21765e-06 -5.50926e-06 6.50779e-06 0.00117891 -2.75603e-05 0.00279763 0.004 799.016 -2.66191 
387 1 1 -0.00719693 0.045487 0.00389929 0 0 0 -8.28134e-06 -7.29002e-06 5.81237e-06 2.93384e-05 -3.44306e-05 2.66201e-05 0.000815765 -0.00234557 0.000109945 0.004 344.791 41.3729 
852 1 1 0.000758873 0.0460615 0.00397615 0 0 0 -5.03302e-06 -1.80329e-07 7.57653e-06 1.75384e-05 -1.0024e-05 5.81837e-06 -0.00180918 0.000401844 0.000382349 0.004 694.056 -79.5684 
157 1 1 0.00865317 0.0452493 0.00389821 0 0 0 -1.49206e-05 -1.19747e-05 1.06543e-05 -4.91975e-06 -2.81023e-06 9.98378e-06 -0.00018775 -0.00113948 -0.00357838 0.004 786.853 -21.9882 
400 1 1 -0.024752 -0.0387964 0.00974417 0 0 0 5.8361e-06 -8.19518e-07 2.18687e-06 -5.43495e-06 -4.84925e-06 -4.78729e-06 0.00259056 -0.00347445 -0.00175915 0.004 300.009 0.0448767 
606 1 1 -0.00065394 -0.0387268 0.00813876 0 0 0 1.9497e-05 6.56799e-05 2.7826e-05 -3.12149e-05 5.06489e-05 2.62817e-05 0.0089439 -0.00875344 0.00616154 0.004 445.126 82.7683 
724 1 1 -0.0339144 -0.0311598 0.009848 0 0 0 6.4763e-06 -1.50085e-06 6.77942e-06 1.55483e-05 1.75047e-05 -5.93774e-06 0.000326093 0.00117545 -0.000172997 0.004 300 0.00249806 
183 1 1 0.0251946 -0.0311656 0.00751467 0 0 0 -6.70168e-05 -4.53436e-05 -5.3464e-05 0.000111769 5.94572e-05 0.000120409 -0.00359545 -0.00728881 0.00176074 0.004 799.94 -0.224607 
544 1 1 -0.0140217 -0.0253029 0.00874968 0 0 0 2.91497e-06 3.12298e-05 3.82579e-05 -1.83306e-05 4.74653e-05 3.84903e-05 0.000173305 0.00483574 0.00587096 0.004 301.782 4.69215 
29 1 1 -0.0045063 -0.0263794 0.00900708 0 0 0 5.37353e-06 3.46813e-05 5.51438e-05 3.60734e-06 5.03214e-05 3.56694e-05 -0.00221088 0.0100601 0.00155457 0.004 324.508 38.928 
248 1 1 0.00349902 -0.0278426 0.007633 0 0 0 3.70907e-05 8.42805e-05 6.13044e-05 1.43288e-05 -4.32726e-06 1.88538e-05 0.0166875 0.00310418 -0.0201461 0.004 728.82 -60.1438 
79 1 1 0.035837 -0.028949 0.00959646 0 0 0 -4.64864e-05 -2.90948e-05 5.9938e-06 5.63304e-05 0.00013016 2.2048e-05 0.0299439 -0.0131438 0.00867228 0.004 800 -0.00246686 
291 1 1 -0.00458877 -0.0173975 0.00909523 0 0 0 -6.91715e-06 9.18866e-06 8.49717e-05 6.75937e-05 1.4392e-05 -6.07619e-05 0.00697811 -0.000888128 0.00414706 0.004 401.388 63.0321 
891 1 1 0.00373481 -0.015528 0.00632504 0 0 0 -7.88823e-06 1.18034e-05 2.66031e-05 0.000105732 -2.75056e-05 -2.06153e-05 -0.0147709 0.00777565 -0.000525209 0.004 689.705 -63.8311 
870 1 1 0.0138323 -0.0156364 0.00831012 0 0 0 -4.03615e-05 2.44176e-05 -6.04352e-05 0.000131304 1.33516e-05 3.66465e-05 -0.00713777 0.00387785 -0.0220676 0.004 798.029 -5.17384 
777 1 1 0.0349691 -0.018778 0.00771 0 0 0 -0.000134638 -1.68336e-05 1.08121e-05 5.29041e-05 8.26165e-05 8.88949e-05 0.0453608 -0.0317236 0.00691802 0.004 800 -0.00206232 
837 1 1 -0.029449 -0.0146728 0.00803321 0 0 0 1.48401e-05 -2.31812e-06 3.60582e-05 3.27021e-05 4.15888e-05 1.04948e-05 0.00189962 -0.0019708 -0.00273502 0.004 300.004 0.0208781 
445 1 1 -0.0181358 -0.0138496 0.00995262 0 0 0 1.63487e-05 2.97837e-05 7.83717e-05 8.12621e-05 7.62056e-05 1.97683e-05 0.000238855 -0.00906987 0.0114763 0.004 300.727 1.95544 
783 1 1 0.00485903 -0.00860666 0.00993779 0 0 0 -8.45159e-05 2.6317e-05 -3.39268e-05 8.34565e-05 -2.37291e-05 -4.45483e-05 0.00120029 -0.0101387 0.0139057 0.004 759.316 -57.6139 
615 1 1 -0.0350999 -0.000758723 0.00955179 0 0 0 -1.9597e-05 -2.02977e-06 1.74212e-05 4.31753e-05 -1.74293e-05 1.144e-05 -0.0012512 -0.00192379 0.000124997 0.004 300 0.00166164 
476 1 1 -0.0459521 0.00262139 0.00988978 0 0 0 -8.40505e-06 2.83002e-06 2.745e-06 1.17091e-05 -5.51963e-06 -3.03234e-06 0.000961865 -0.000545345 0.000448213 0.004 300 2.05189e-06 
16 1 1 -0.0210455 0.0016943 0.00830921 0 0 0 -3.01851e-05 1.69929e-05 4.06255e-05 3.61982e-05 4.2528e-05 2.58062e-05 0.00237465 -0.00352078 0.00372341 0.004 300.129 0.464344 
303 1 1 0.0459492 0.0035047 0.00962641 0 0 0 3.63695e-05 -8.9985e-06 -1.49224e-05 4.9656e-05 -6.70466e-05 0.00011194 -0.00101794 -0.00350607 -0.00247919 0.004 800 -4.27133e-06 
523 1 1 -0.0389797 0.00803082 0.00932858 0 0 0 -1.56014e-05 -4.42634e-06 1.18923e-05 1.99315e-05 -1.56803e-05 1.71039e-05 -0.00108099 0.00024895 0.00037714 0.004 300 0.000348317 
704 1 1 -0.0107979 0.00519216 0.00743859 0 0 0 -3.82252e-05 4.28777e-05 5.78475e-05 1.15771e-05 4.6214e-06 -5.53041e-06 -0.00724443 0.0040803 -0.00196939 0.004 310.953 16.892 
454 1 1 0.00101186 0.00715925 0.00933952 0 0 0 -7.50708e-05 6.40952e-05 2.59744e-05 -1.56291e-05 -3.57721e-05 -1.072e-05 -0.0072651 0.0059697 -0.0267291 0.004 615.08 -88.4665 
31 1 1 0.0102165 0.00547577 0.00832592 0 0 0 -0.000115811 3.63193e-05 1.80347e-05 2.99155e-05 4.41679e-05 -6.36259e-05 -0.0149027 0.000430816 -0.0239193 0.004 788.136 -20.3012 
135 1 1 0.0188885 0.0074916 0.00960776 0 0 0 -7.04998e-05 0.000108887 -0.000120024 -1.179e-06 5.40912e-05 7.09248e-05 -0.00668543 0.0217863 -0.0269503 0.004 799.942 -0.2224 
712 1 1 0.0281138 0.00743265 0.00998829 0 0 0 -1.84205e-05 6.693e-05 -0.000134482 5.95967e-06 -6.70271e-05 0.000210505 -0.0170982 0.0102265 -0.000128737 0.004 799.997 -0.0137598 
210 1 1 0.0394934 0.00814616 0.00989847 0 0 0 5.55098e-05 1.22071e-05 -4.23037e-05 9.88829e-05 -9.92384e-05 0.000280946 -0.000147181 -0.00420359 0.00311619 0.004 800 -6.14782e-05 
651 1 1 -0.0437987 0.0143398 0.00823565 0 0 0 -7.7627e-06 -2.04481e-06 4.91771e-06 4.46752e-06 -8.13424e-06 5.92079e-06 0.000228792 -0.0010474 -0.000511933 0.004 300 2.36312e-05 
621 1 1 0.0437182 0.0147846 0.00900756 0 0 0 1.50215e-05 1.2443e-05 -2.0798e-05 -1.38126e-05 -5.36536e-05 6.21982e-05 -0.00511697 -0.00504665 -0.00170548 0.004 800 -0.000305895 
726 1 1 -0.0257657 0.0199972 0.00692821 0 0 0 -2.18918e-05 -4.97198e-07 9.91706e-06 2.51852e-05 -1.26527e-05 4.55883e-05 0.00644191 0.000873388 0.00104354 0.004 300.006 0.0286894 
230 1 1 -0.00847476 0.0245952 0.00973757 0 0 0 -1.95884e-05 2.42535e-05 -5.98862e-06 0.000105924 -0.000145481 0.000139442 -0.0030361 -0.00274723 0.0116412 0.004 319.01 29.978 
320 1 1 -0.00171271 0.0204051 0.00979376 0 0 0 6.27719e-06 4.56787e-05 1.26421e-05 3.43837e-05 -0.000114312 6.97895e-05 0.00025627 -0.00474104 -0.00646712 0.004 374.841 64.1847 
7 1 1 0.012921 0.0224302 0.00918509 0 0 0 3.35353e-05 -6.86765e-05 7.40816e-06 2.53645e-05 7.20887e-05 1.11468e-05 -0.0117287 0.00247319 0.00143644 0.004 794.645 -10.615 
83 1 1 0.0214164 0.023965 0.0088841 0 0 0 -2.26884e-05 -1.91819e-05 -6.81262e-05 5.01339e-05 7.38544e-05 6.76276e-05 -0.0079778 -0.0108413 -0.00941176 0.004 799.892 -0.394269 
747 1 1 -0.0337321 0.0313835 0.00974069 0 0 0 -2.28433e-05 -1.48083e-05 2.16753e-05 1.27338e-05 -8.6417e-06 1.18877e-05 -0.000444109 -0.00840977 -0.00204419 0.004 300.001 0.00444343 
51 1 1 -0.0226192 0.0329654 0.00703446 0 0 0 -6.5798e-05 -1.02735e-05 9.46053e-06 1.4292e-05 -2.88824e-06 2.27957e-05 -0.00402769 0.0106325 0.00568667 0.004 300.007 0.0329251 
116 1 1 -0.00940746 0.0391204 0.00809805 0 0 0 -1.57348e-05 -1.2468e-05 1.15712e-05 0.000109187 -9.07864e-05 7.9483e-05 -0.00341207 -0.00209159 0.00339365 0.004 314.118 24.8502 
205 1 1 -0.000560444 -0.0460777 0.011017 0 0 0 1.03749e-05 1.87391e-05 -4.43345e-06 -4.45748e-05 4.27967e-05 5.58514e-05 0.000575115 0.00062268 -0.00533063 0.004 358.577 60.5918 
836 1 1 0.00737987 -0.0454689 0.0106609 0 0 0 -1.9608e-05 1.59629e-05 -5.03163e-06 -8.09651e-07 3.37221e-05 3.33513e-05 -0.00893919 0.00367238 0.00975381 0.004 748.061 -48.2858 
486 1 1 -0.0156917 -0.0402432 0.0103351 0 0 0 7.04682e-06 1.58636e-05 -5.05821e-06 9.49636e-06 1.53201e-05 2.084e-05 0.00693295 -0.00646377 0.00973345 0.004 300.635 1.83865 
311 1 1 -0.00836818 -0.0439884 0.010679 0 0 0 -1.41998e-06 6.43555e-05 7.34214e-06 3.26446e-05 -5.54621e-05 8.36455e-05 -0.0034918 0.0125275 0.00615678 0.004 303.056 6.62463 
447 1 1 0.018055 -0.0423882 0.0118322 0 0 0 -5.08707e-05 -1.27978e-05 -1.01153e-05 6.69513e-05 6.48606e-05 5.03676e-05 0.0106763 -0.0251308 0.00501719 0.004 798.395 -4.21232 
538 1 1 -0.0295743 -0.035351 0.0149849 0 0 0 1.44402e-05 -5.59258e-06 1.24398e-06 1.97225e-05 2.28277e-05 -5.94236e-06 0.000916885 0.00174641 -0.00148387 0.004 300.006 0.0264429 
279 1 1 0.011155 -0.0385418 0.0114151 0 0 0 -4.21033e-05 3.43532e-05 -2.03375e-05 2.5714e-05 3.33769e-05 3.65514e-06 0.00862007 0.00403403 -0.00984758 0.004 783.253 -25.9819 
110 1 1 0.0250463 -0.0386628 0.0117241 0 0 0 -2.33331e-05 -2.67371e-05 -4.57153e-06 8.09294e-05 1.88398e-05 5.67947e-05 -0.0127959 0.0208791 -0.00321648 0.004 799.884 -0.426114 
188 1 1 -0.0179041 -0.0321008 0.0101564 0 0 0 2.3434e-05 2.88777e-05 2.27139e-05 -1.11099e-05 2.39563e-05 2.3027e-05 0.00258498 0.00293232 -0.00315547 0.004 300.398 1.31559 
810 1 1 -0.0102601 -0.0344511 0.0102035 0 0 0 1.58468e-05 4.11008e-05 2.93958e-05 -7.29403e-06 1.15487e-05 3.13348e-05 -0.00035574 0.00175813 -0.00158659 0.004 309.935 16.8431 
412 1 1 -0.00316744 -0.0328808 0.0133524 0 0 0 1.98397e-05 5.51435e-05 6.4313e-05 -2.95084e-05 1.5758e-05 4.96977e-05 -0.000592956 -0.00551705 0.00126227 0.004 395.361 54.9386 
545 1 1 0.00452056 -0.0343089 0.0121939 0 0 0 -5.94411e-06 6.72125e-05 5.55935e-05 -1.65297e-05 9.23174e-06 1.35892e-06 1.46408e-05 0.00690145 0.000586737 0.004 692.302 -58.5264 
100 1 1 0.0115063 -0.0305931 0.0117074 0 0 0 -1.72442e-05 5.86837e-05 4.19026e-05 -1.43815e-05 -8.52225e-06 4.97578e-06 0.00156333 -0.00210863 0.00202769 0.004 787.649 -19.9191 
556 1 1 0.0183665 -0.0344775 0.0109246 0 0 0 -4.20629e-05 -1.21142e-05 2.13476e-05 6.56454e-05 6.96875e-05 3.92894e-05 -0.00932208 0.00735173 -0.0120932 0.004 799.183 -2.24263 