ITEM: TIMESTEP
33600
ITEM: NUMBER OF ATOMS
891
ITEM: BOX BOUNDS mm mm mm
-0.05 0.05
-0.05 0.05
0 0.15
ITEM: ATOMS id type type x y z ix iy iz vx vy vz fx fy fz omegax omegay omegaz radius f_Temp[0] f_heatFlux[0] 
199 1 1 -0.00444377 -0.0458158 0.00397435 0 0 0 2.74338e-07 -6.4929e-07 -3.9029e-07 -2.75188e-07 -5.41775e-08 -2.4286e-07 -2.00861e-05 4.82616e-05 -0.000118109 0.004 480.444 3.48177 
873 1 1 -0.0201484 -0.0414789 0.0039016 0 0 0 1.95293e-07 -4.49151e-07 1.10956e-07 1.66791e-07 -2.8055e-08 -3.87835e-08 6.07671e-05 8.75868e-06 -7.11047e-05 0.004 385.731 4.85629 
485 1 1 -0.0126796 -0.0442534 0.00397264 0 0 0 2.44889e-07 -5.95774e-07 -1.36455e-07 -9.08661e-08 3.92168e-07 -1.93863e-07 3.84106e-05 8.8119e-05 -9.89221e-05 0.004 419.632 5.39864 
850 1 1 0.00335642 -0.0441759 0.00394116 0 0 0 1.03274e-07 -1.22773e-06 -3.33695e-07 4.39875e-08 -2.82649e-07 -9.34465e-08 0.00024514 -3.51382e-05 0.000145719 0.004 552.28 0.173669 
186 1 1 0.0114401 -0.0445988 0.00392827 0 0 0 9.64706e-08 -5.38012e-07 -3.0336e-07 9.45584e-08 -5.00783e-08 -2.85093e-07 6.16431e-05 -2.52031e-05 -6.13602e-06 0.004 654.373 -3.89429 
560 1 1 0.018969 -0.0420006 0.00394676 0 0 0 2.83151e-07 -4.8315e-07 -2.85302e-07 3.26582e-07 -2.46443e-08 -2.0765e-07 2.92902e-05 2.82588e-05 2.40083e-05 0.004 691.959 -4.54903 
102 1 1 -0.0147501 -0.0357331 0.00386312 0 0 0 6.12937e-07 -1.21259e-06 1.28044e-07 2.81104e-07 -5.81108e-08 -3.14149e-07 0.000195278 9.12854e-05 -9.53083e-05 0.004 412.873 4.15837 
88 1 1 -0.00730761 -0.0383837 0.00392727 0 0 0 4.5276e-07 -1.23964e-06 -1.51331e-07 2.87009e-07 -8.63004e-08 -2.44159e-07 0.000226549 -4.04055e-06 3.33777e-05 0.004 462.495 3.41397 
776 1 1 0.00520385 -0.0354368 0.00395024 0 0 0 5.71066e-07 -1.81274e-06 -8.08436e-07 5.22561e-07 9.73069e-08 -4.61112e-07 0.000308113 -1.28582e-05 0.000162067 0.004 604.085 -1.70175 
410 1 1 0.0130236 -0.0368131 0.00392572 0 0 0 5.49935e-07 -9.52957e-07 -5.2463e-07 5.48465e-07 -4.31938e-08 -4.63367e-07 3.706e-05 3.69947e-05 -1.7163e-05 0.004 661.902 -3.69506 
282 1 1 0.025876 -0.0381319 0.00388527 0 0 0 2.29804e-07 -4.75132e-07 -3.34908e-07 3.7909e-07 -6.46321e-08 3.69856e-08 2.42537e-05 3.17159e-05 -1.4869e-05 0.004 734.635 -4.56202 
682 1 1 -0.0302016 -0.0348779 0.00393465 0 0 0 2.41983e-07 -4.2365e-07 3.92319e-09 5.03275e-08 -3.07024e-08 1.22636e-07 3.13164e-05 -4.3209e-06 -7.3883e-05 0.004 338.953 3.57838 
251 1 1 -0.0224189 -0.0338476 0.00392332 0 0 0 5.36278e-07 -7.47468e-07 3.07059e-07 1.64659e-07 -1.54982e-07 -2.37062e-08 5.84954e-05 2.30111e-05 -4.25801e-05 0.004 371.382 4.30261 
770 1 1 -0.00204754 -0.0321408 0.00393965 0 0 0 8.26673e-07 -2.2216e-06 -4.19339e-07 4.63329e-07 4.69686e-08 -3.3584e-07 0.000382469 2.07435e-05 -0.000139944 0.004 543.004 0.362986 
883 1 1 0.018166 -0.0307536 0.00390024 0 0 0 6.97292e-07 -1.04027e-06 -8.10133e-07 9.82842e-07 -3.91701e-07 -3.93751e-07 0.000191885 0.00017825 8.7744e-05 0.004 703.368 -4.2269 
838 1 1 0.0320336 -0.033109 0.00396073 0 0 0 4.44948e-07 -5.61943e-07 -7.16341e-07 4.42636e-07 -2.36294e-08 9.33266e-09 -7.05982e-05 2.06239e-05 -1.30881e-05 0.004 759.959 -3.93894 
617 1 1 -0.0372521 -0.0271215 0.00391646 0 0 0 4.44178e-07 -2.55645e-07 3.19168e-07 -1.74308e-07 -3.98268e-08 9.91758e-09 5.44611e-05 1.58685e-05 -7.29498e-05 0.004 317.195 2.43808 
824 1 1 -0.0292998 -0.0270298 0.00392984 0 0 0 8.78857e-07 -9.97415e-07 3.19145e-07 -2.02385e-07 -5.71502e-08 2.52092e-07 0.000164388 0.000128524 -0.00011581 0.004 329.555 3.14604 
571 1 1 -0.0202615 -0.0262215 0.00393285 0 0 0 1.32128e-06 -1.52357e-06 2.07066e-07 -3.29212e-07 -9.86877e-08 3.71467e-08 0.000181587 0.000178736 -0.000197878 0.004 367.921 4.22406 
861 1 1 -0.00959294 -0.0297304 0.00389699 0 0 0 1.17799e-06 -1.93203e-06 2.49035e-08 4.55444e-08 -7.77775e-08 -4.44969e-07 0.000213995 0.000217186 -1.6227e-05 0.004 455.462 3.06947 
434 1 1 0.0103455 -0.0293807 0.00393743 0 0 0 8.00317e-07 -1.57378e-06 -5.72697e-07 8.15034e-07 -1.19765e-07 -6.29193e-07 8.35366e-05 -1.90159e-05 -5.06921e-06 0.004 650.978 -3.10118 
103 1 1 0.0311547 -0.0252347 0.00394363 0 0 0 8.16272e-07 -9.35534e-07 -1.20369e-06 5.96439e-07 9.66648e-08 2.61003e-08 6.93342e-05 -2.32184e-05 -5.58375e-06 0.004 766.476 -3.43442 
769 1 1 -0.041344 -0.0202818 0.0039823 0 0 0 5.74232e-07 -1.60798e-07 3.89066e-07 -3.1854e-07 -9.60082e-08 -2.14764e-07 6.4875e-05 -3.37008e-05 -7.68966e-05 0.004 310.523 1.83054 
94 1 1 -0.0333714 -0.0202163 0.0039437 0 0 0 1.1829e-06 -6.43438e-07 5.77577e-07 -6.07053e-07 -2.22258e-07 1.46559e-07 -2.1529e-06 4.58113e-05 -9.81027e-05 0.004 320.084 2.50145 
40 1 1 -0.025401 -0.0201464 0.00391762 0 0 0 1.66641e-06 -1.45888e-06 5.4854e-07 -7.4323e-07 -1.76661e-07 1.65819e-07 5.28103e-05 0.000164268 -5.35068e-05 0.004 339.989 3.39054 
19 1 1 -0.00865072 -0.0218804 0.00393967 0 0 0 1.68468e-06 -2.14081e-06 4.92471e-09 -3.33075e-07 -2.91978e-07 -5.11401e-07 0.000113326 0.00036418 -0.000105966 0.004 457.67 3.00735 
442 1 1 -0.000436966 -0.0218499 0.00393584 0 0 0 1.59545e-06 -2.47656e-06 -6.5226e-07 -1.23757e-07 -5.59678e-07 -7.50463e-07 0.000421743 0.000300901 -4.11202e-05 0.004 552.079 0.137434 
259 1 1 0.00753191 -0.0220001 0.00392512 0 0 0 1.38526e-06 -2.11743e-06 -5.91036e-07 2.13471e-07 -6.09345e-07 -3.64072e-07 0.000213184 9.3725e-05 4.05347e-05 0.004 634.872 -2.55184 
512 1 1 0.0153883 -0.0232356 0.00397835 0 0 0 1.07597e-06 -1.22018e-06 -6.53798e-07 7.70884e-07 -4.61727e-07 -3.2648e-07 -1.09702e-06 0.000107329 4.08901e-05 0.004 697.703 -3.80063 
470 1 1 0.0232616 -0.0243589 0.00390816 0 0 0 9.59698e-07 -1.24649e-06 -1.3854e-06 7.62655e-07 -3.32162e-07 -4.62373e-07 0.00023713 0.00012905 -1.93361e-05 0.004 739.988 -4.10199 
451 1 1 0.0390293 -0.0244875 0.00392048 0 0 0 4.41946e-07 -4.24649e-07 -3.33411e-07 3.77906e-07 2.1986e-07 6.21389e-08 9.04843e-05 -2.5552e-05 0.000102618 0.004 781.534 -2.51117 
531 1 1 -0.0164596 -0.0192004 0.00396126 0 0 0 1.91145e-06 -1.89359e-06 3.51807e-07 -6.44647e-07 -7.92465e-08 9.20882e-08 0.000382722 0.000540334 -2.01555e-05 0.004 378.456 4.478 
229 1 1 0.0202059 -0.0169136 0.00386876 0 0 0 2.09988e-06 -1.45909e-06 -2.21678e-06 1.01666e-06 -4.27025e-07 -4.27581e-07 9.3938e-05 0.000242857 -0.000207466 0.004 728.839 -3.85525 
734 1 1 0.0280521 -0.017942 0.00394397 0 0 0 1.24822e-06 -1.38994e-06 -1.44719e-06 9.09378e-07 1.73531e-07 -7.48819e-07 0.000164817 -0.00012096 6.02391e-05 0.004 765.028 -3.21791 
635 1 1 0.0425981 -0.0174495 0.00392192 0 0 0 5.00425e-07 -1.54614e-07 -3.0965e-07 2.82061e-07 -2.3992e-08 -1.3078e-07 -2.79459e-05 0.000169634 -5.95337e-05 0.004 792 -1.46266 
87 1 1 -0.0448224 -0.0104639 0.0039142 0 0 0 5.68055e-07 -3.02643e-07 2.86088e-07 -9.31609e-08 -9.53152e-09 6.41573e-08 3.39782e-06 6.68375e-05 7.10163e-05 0.004 304.784 1.02656 
406 1 1 -0.0373951 -0.013391 0.00396016 0 0 0 1.35483e-06 -4.45942e-07 1.25932e-07 -6.97675e-07 -2.44803e-07 1.11713e-07 -5.07086e-05 0.000272677 -5.49206e-05 0.004 309.98 1.66657 
224 1 1 -0.0230581 -0.0126019 0.00387962 0 0 0 2.11841e-06 -2.23606e-06 3.13225e-08 -8.94177e-07 -6.33033e-07 -1.46878e-07 0.000374161 0.000557228 1.26587e-06 0.004 353.315 3.4751 
751 1 1 -0.0102996 -0.0141545 0.00396945 0 0 0 1.7589e-06 -2.01131e-06 -8.51976e-07 -4.35498e-07 -7.09389e-07 -4.95093e-07 -4.03009e-05 4.54511e-05 3.47093e-05 0.004 433.993 3.34978 
622 1 1 -0.00273388 -0.0117409 0.00388524 0 0 0 2.11526e-06 -2.40553e-06 -1.75028e-06 9.30024e-08 -6.6865e-07 -7.53388e-07 0.000334712 0.000424585 -0.000155831 0.004 508.489 1.26009 
128 1 1 0.00951066 -0.010685 0.00388459 0 0 0 2.55984e-06 -2.42949e-06 -2.54125e-06 7.43768e-07 -7.65159e-07 -7.4324e-07 0.000389808 0.000192622 0.000104534 0.004 660.553 -3.1258 
68 1 1 0.0262808 -0.010211 0.00395439 0 0 0 2.26065e-06 -1.33021e-06 -1.94474e-06 9.24073e-07 -1.61103e-07 -6.05085e-07 6.50506e-05 0.000198235 -8.49278e-05 0.004 768.456 -3.06685 
791 1 1 0.0340945 -0.0118532 0.00392801 0 0 0 1.97864e-06 -1.11534e-06 -1.49456e-06 4.13834e-07 7.42945e-07 -3.0712e-08 0.000207584 0.000379226 -0.000239175 0.004 786.098 -2.0558 
354 1 1 -0.0380748 -0.00550396 0.00392042 0 0 0 1.06985e-06 -7.48985e-07 2.17258e-07 -6.66357e-07 -6.72537e-08 1.74074e-07 8.82921e-05 0.000111272 2.73607e-05 0.004 308.94 1.46851 
725 1 1 -0.0304901 -0.00800531 0.0039252 0 0 0 2.06945e-06 -1.01039e-06 1.42042e-07 -1.13133e-06 -2.28655e-07 2.36936e-07 -2.56688e-05 0.000426034 0.000195101 0.004 318.277 2.24481 
353 1 1 -0.0161288 -0.00879809 0.00391144 0 0 0 1.50841e-06 -2.2755e-06 -8.08836e-07 -6.0916e-07 -9.10446e-07 -1.97043e-07 0.000404066 0.000118456 4.82283e-05 0.004 392.603 3.78084 
391 1 1 -0.00857661 -0.00639748 0.00391358 0 0 0 1.56367e-06 -1.7932e-06 -1.375e-06 -5.62152e-07 -8.42812e-07 -5.46348e-07 -2.02329e-05 0.000167195 5.65141e-05 0.004 453.625 2.81726 
683 1 1 0.0173533 -0.00945628 0.00390987 0 0 0 2.56084e-06 -1.29698e-06 -2.02899e-06 8.1148e-07 -6.30345e-07 -4.3222e-07 0.000297653 0.000243442 0.000132461 0.004 719.247 -3.88935 
690 1 1 0.0385537 -0.00520142 0.00390022 0 0 0 1.20215e-06 -1.59473e-07 -1.13139e-06 3.93009e-07 5.96966e-07 -3.99761e-07 -1.39724e-05 0.000206117 1.68272e-06 0.004 792.616 -1.29813 
10 1 1 0.0449635 -0.00990888 0.00397399 0 0 0 4.71283e-07 -2.43045e-07 -4.62408e-07 5.5981e-08 5.2042e-08 -1.61647e-07 5.85679e-05 -6.02548e-05 6.85333e-06 0.004 795.522 -0.972813 
402 1 1 -0.046017 -0.00264172 0.00392182 0 0 0 4.84817e-07 -4.23885e-07 4.17297e-07 -2.06527e-07 4.395e-08 1.05348e-07 8.72875e-05 2.62824e-05 -9.48789e-05 0.004 305.133 1.02016 
761 1 1 -0.0294744 -0.000168333 0.00392563 0 0 0 1.20514e-06 -1.36675e-06 -1.29157e-07 -7.43816e-07 -2.96553e-07 -6.11786e-08 0.000141099 0.000199109 1.24745e-05 0.004 327.527 2.65212 
293 1 1 -0.0229324 -0.00466872 0.0039595 0 0 0 1.37761e-06 -1.94208e-06 -2.31641e-07 -8.42413e-07 -8.18601e-07 -7.11645e-08 -5.94305e-05 0.000110045 -5.88722e-05 0.004 351.754 3.50795 
384 1 1 -0.0147278 -0.000905194 0.0039815 0 0 0 0.000482432 0.000450355 -2.84423e-07 4.06884e-10 2.94918e-09 7.74963e-08 -0.112851 0.120888 0.176243 0.004 302.583 0 
378 1 1 0.00130609 -0.00490406 0.00392906 0 0 0 2.30155e-06 -1.69117e-06 -1.56324e-06 1.47273e-07 -4.766e-07 -2.23621e-07 0.000285039 0.000529327 0.000218228 0.004 556.459 -0.223564 
390 1 1 0.0103707 -0.0027653 0.00396886 0 0 0 2.37049e-06 -1.89378e-06 -1.50646e-06 2.78198e-07 -6.8533e-07 -4.15134e-07 0.000130818 0.000330475 6.27405e-05 0.004 677.512 -3.85292 
411 1 1 0.0223603 -0.00329286 0.00397626 0 0 0 3.03525e-06 -9.67826e-07 -2.33392e-06 7.22223e-07 -2.13828e-07 -3.78896e-07 -0.000115871 0.000545827 -0.000227062 0.004 753.594 -3.71061 
342 1 1 0.0307348 -0.00361665 0.00397529 0 0 0 9.70495e-07 -7.10408e-07 -9.74106e-07 1.35347e-07 4.67887e-07 -2.56365e-07 8.88842e-05 1.62247e-05 0.000266376 0.004 785.79 -2.0209 
262 1 1 0.0460221 -0.00206505 0.00395833 0 0 0 7.83333e-07 -2.81671e-08 -4.3427e-07 1.40171e-07 4.30329e-09 -1.05897e-07 -0.00010269 6.89539e-05 -0.000135243 0.004 795.736 -0.936022 
261 1 1 -0.0398214 0.00224601 0.00393476 0 0 0 8.68319e-07 -7.5425e-07 5.05692e-07 -3.46038e-07 7.70918e-08 2.25469e-07 6.44018e-05 0.00010795 5.50778e-07 0.004 309.488 1.44602 
666 1 1 -0.00454676 0.00045143 0.00395604 0 0 0 1.56239e-06 -1.67023e-06 -1.43097e-06 -5.71676e-07 -9.1572e-07 -2.25171e-07 3.2226e-05 -4.18795e-05 -5.50036e-05 0.004 496.11 1.78989 
815 1 1 0.00434368 0.0024356 0.00392712 0 0 0 2.47472e-06 -1.87945e-06 -1.86844e-06 4.29077e-07 -7.24305e-07 -4.35895e-07 2.20535e-05 0.000392729 -0.000188538 0.004 607.31 -1.83727 
306 1 1 0.01637 0.00247667 0.0039581 0 0 0 3.00324e-06 -2.09822e-06 -1.98744e-06 3.30979e-07 -3.15765e-07 -1.60126e-07 0.000640228 0.000632474 -1.481e-05 0.004 726.276 -4.37162 
178 1 1 0.0241042 0.00444176 0.00386114 0 0 0 2.5411e-06 -5.89328e-07 -2.8176e-06 5.17035e-07 7.56367e-08 -2.77635e-07 0.000276514 0.000399351 0.000379336 0.004 756.517 -3.53393 
862 1 1 0.0320656 0.00423367 0.00393097 0 0 0 1.6381e-06 -6.83661e-07 -2.03015e-06 2.58442e-07 4.40907e-07 -4.76474e-07 -6.14225e-05 -6.55584e-05 -0.000321703 0.004 781.009 -2.30416 
661 1 1 0.0398756 0.0029147 0.0039468 0 0 0 1.12906e-06 -3.81897e-07 -9.14037e-07 1.57919e-07 -1.07971e-07 -1.68334e-07 -7.72701e-05 5.24581e-05 0.000187428 0.004 792.038 -1.35734 
677 1 1 -0.0453782 0.0078854 0.00393641 0 0 0 3.31429e-07 -4.31295e-07 3.20034e-07 -4.6343e-08 5.91577e-08 9.1775e-08 1.96354e-05 -1.82113e-05 -8.63683e-06 0.004 305.271 1.05829 
12 1 1 -0.0333161 0.0067196 0.00393696 0 0 0 1.02102e-06 -1.10631e-06 4.03814e-07 -2.07887e-07 -6.02253e-08 2.32826e-07 9.78785e-05 7.72698e-05 -3.78855e-05 0.004 320.275 2.2425 
420 1 1 -0.0254 0.00664838 0.00392687 0 0 0 1.29651e-06 -1.76819e-06 -1.95523e-07 -2.66899e-07 -5.95116e-07 -1.88863e-07 0.000275333 0.00021049 -7.93413e-05 0.004 343.141 3.16383 
654 1 1 -0.0175134 0.00720948 0.00387213 0 0 0 1.43731e-06 -2.15444e-06 -1.13304e-06 -3.17133e-07 -9.40184e-07 -3.7807e-07 0.000390036 0.000232303 -4.41249e-06 0.004 382.371 3.68444 
145 1 1 -0.00454407 0.00836538 0.00386311 0 0 0 1.86013e-06 -1.77768e-06 -1.94312e-06 2.05401e-07 -9.41117e-07 -3.41762e-07 0.00023311 0.000371125 9.11022e-05 0.004 494.607 1.92739 
624 1 1 0.0451449 0.00890653 0.00390657 0 0 0 1.09461e-06 1.60957e-08 -7.45e-07 1.63065e-07 -1.591e-08 -1.03887e-07 9.20248e-06 0.000212019 -6.04021e-05 0.004 794.533 -1.10612 
613 1 1 -0.0372991 0.0135339 0.00384344 0 0 0 5.63379e-07 -7.55705e-07 3.24492e-07 -5.35702e-08 4.68656e-08 2.06157e-07 4.41993e-05 5.66733e-05 4.11557e-05 0.004 312.244 1.7868 
265 1 1 -0.0293062 0.0135429 0.00396371 0 0 0 8.56189e-07 -1.16816e-06 3.80671e-07 5.1652e-08 -1.26062e-07 4.9364e-08 -1.7442e-06 -1.16042e-05 -6.19835e-06 0.004 329.643 2.92506 
273 1 1 -0.0213694 0.0141274 0.00392939 0 0 0 1.08141e-06 -1.63108e-06 1.10974e-07 -5.29929e-08 -4.90988e-07 -3.38259e-08 0.000193026 0.000180833 4.85032e-05 0.004 354.003 3.68029 
492 1 1 -0.01145 0.0123712 0.00398079 0 0 0 1.57225e-06 -2.12788e-06 -6.819e-07 6.45468e-08 -7.13865e-07 -1.1052e-07 0.000268493 0.000226027 -3.6513e-05 0.004 430.944 3.97698 
234 1 1 0.00585285 0.010393 0.00392891 0 0 0 2.2906e-06 -1.52042e-06 -2.09093e-06 6.21954e-07 -6.75345e-07 -2.01197e-07 0.000468607 0.00027264 0.000236979 0.004 601.18 -1.33813 
160 1 1 0.0142843 0.0106356 0.00390958 0 0 0 2.59827e-06 -9.63917e-07 -2.58249e-06 7.05005e-07 -3.34342e-07 5.80654e-08 0.0003265 0.000321074 -9.25148e-05 0.004 693.174 -3.50339 
484 1 1 0.0220893 0.0120738 0.0039012 0 0 0 1.64863e-06 -7.92748e-07 -2.04327e-06 3.0056e-07 7.6572e-08 4.73918e-08 6.13758e-05 7.26424e-05 -8.92255e-06 0.004 743.431 -3.60232 
743 1 1 0.0300184 0.0126216 0.00398127 0 0 0 1.10431e-06 -4.62564e-07 -7.9571e-07 1.1596e-07 -3.335e-07 -1.76052e-08 0.000194845 -0.000116662 0.000116654 0.004 769.493 -2.91328 
514 1 1 0.0379536 0.0130186 0.00386906 0 0 0 1.28916e-06 -1.44346e-07 -1.18007e-06 1.68765e-07 -9.69716e-08 -1.14124e-07 -6.24471e-05 0.000282371 -0.000151267 0.004 786.298 -1.90765 
530 1 1 -0.0159002 0.0198648 0.00392796 0 0 0 1.10576e-06 -1.46912e-06 -5.75928e-07 4.12444e-07 -5.48706e-07 -4.27326e-07 0.000227827 0.000315475 -8.78625e-07 0.004 382.19 3.99711 
227 1 1 -0.00736503 0.0192084 0.00396595 0 0 0 1.21539e-06 -1.68606e-06 -9.10741e-07 4.97482e-07 -7.64897e-07 -2.3445e-07 0.000172418 0.000251715 0.000240865 0.004 470.147 3.09474 
392 1 1 -0.00049863 0.0151513 0.00394446 0 0 0 1.51384e-06 -1.50531e-06 -1.48256e-06 3.20211e-07 -6.19782e-07 -3.00131e-07 0.000150629 -4.91448e-05 -6.64775e-05 0.004 534.413 0.887617 
493 1 1 0.00985839 0.0172531 0.00394647 0 0 0 1.77038e-06 -5.31522e-07 -1.62741e-06 5.74205e-07 -2.86909e-07 -6.46734e-08 -9.46207e-05 0.000127464 8.06023e-06 0.004 645.263 -2.43296 
34 1 1 0.0176357 0.0187852 0.003941 0 0 0 1.45333e-06 -4.57217e-07 -1.91475e-06 4.08472e-07 3.07856e-07 2.14309e-08 3.03721e-05 0.000116209 -3.91564e-05 0.004 705.695 -3.44241 
206 1 1 0.0255397 0.0192353 0.00396993 0 0 0 1.12442e-06 -3.21263e-07 -1.1637e-06 3.03365e-07 2.62652e-07 3.84509e-08 -3.52616e-05 -0.000209922 3.72851e-05 0.004 750.732 -3.39458 
104 1 1 0.0334175 0.0199346 0.0038965 0 0 0 1.40334e-06 5.38084e-08 -1.04656e-06 2.05769e-07 -1.77186e-09 6.29521e-08 -4.44158e-05 0.000303688 5.00565e-05 0.004 774.409 -2.71415 
809 1 1 -0.0412058 0.0204949 0.00395497 0 0 0 2.09437e-07 -3.69144e-07 1.55893e-07 -2.98471e-09 7.13732e-09 8.5999e-08 2.18866e-05 2.2876e-05 6.5306e-06 0.004 308.087 1.51934 
773 1 1 -0.0331523 0.0204531 0.00393522 0 0 0 4.96907e-07 -8.76094e-07 1.98866e-07 7.90718e-08 -2.75103e-08 6.53352e-08 6.83631e-05 7.77392e-05 2.89531e-05 0.004 321.459 2.68635 
792 1 1 0.00347677 0.0219735 0.00392106 0 0 0 1.12505e-06 -8.62277e-07 -1.12281e-06 5.27176e-07 -3.96286e-07 2.46457e-08 9.45668e-05 0.00022112 0.00021728 0.004 584.134 -0.794673 
718 1 1 0.0413199 0.0203659 0.00392989 0 0 0 8.34002e-07 5.92022e-08 -7.91974e-07 1.55786e-07 -3.0328e-08 -3.39227e-08 2.22652e-05 -7.03623e-06 2.69998e-05 0.004 786.224 -2.02484 
101 1 1 -0.0371146 0.0272995 0.00390402 0 0 0 2.83869e-07 -4.36281e-07 2.07709e-07 4.737e-08 -1.94934e-08 1.75313e-08 2.98066e-05 3.79789e-05 -2.69444e-05 0.004 315.801 2.32313 
246 1 1 -0.0290567 0.0272807 0.00398271 0 0 0 1.32535e-07 -6.82865e-07 1.35897e-07 3.15407e-07 1.75486e-07 -8.90179e-08 2.69293e-05 -2.00819e-06 6.69286e-05 0.004 325.962 3.13609 
331 1 1 -0.0212281 0.0257799 0.00390018 0 0 0 5.67335e-07 -1.09285e-06 2.02156e-07 4.04994e-07 -1.28337e-07 -7.17146e-08 0.000156444 1.18453e-05 -1.83963e-05 0.004 355.297 3.78443 
846 1 1 -0.0134708 0.0274168 0.0039748 0 0 0 6.80259e-07 -1.10248e-06 1.72488e-09 3.89369e-07 -3.64907e-07 1.52034e-08 0.000171762 0.000191638 8.6091e-05 0.004 403.637 3.66034 
348 1 1 -0.00329916 0.0260612 0.00393374 0 0 0 4.80901e-07 -1.03502e-06 -7.24186e-07 4.24094e-07 -2.07802e-07 -1.84931e-07 0.000130573 -4.61591e-05 -8.1913e-06 0.004 516.225 1.39088 
786 1 1 0.00840353 0.0281551 0.00389685 0 0 0 4.8975e-07 -5.3361e-07 -1.11599e-06 6.666e-07 -5.59266e-08 1.46028e-07 0.000122914 6.45486e-05 -3.42499e-05 0.004 629.468 -2.30259 
316 1 1 0.0162833 0.0272928 0.0039063 0 0 0 5.67938e-07 -1.97734e-07 -9.31516e-07 5.02382e-07 3.29675e-07 1.69053e-07 0.000150671 -1.87272e-05 6.96432e-05 0.004 699.799 -3.88295 
495 1 1 0.0288861 0.0264618 0.00396716 0 0 0 8.87777e-07 -3.68522e-08 -8.14018e-07 3.9566e-07 1.70475e-07 -2.59105e-08 -9.30152e-05 7.30566e-06 -8.4589e-06 0.004 763.656 -3.42087 
863 1 1 0.0367263 0.0277633 0.00392936 0 0 0 6.15223e-07 2.35009e-08 -4.41672e-07 2.44113e-07 5.0082e-09 -2.46425e-08 2.337e-05 7.34003e-05 7.66465e-05 0.004 780.911 -2.63282 
511 1 1 -0.00761835 0.0327132 0.00388553 0 0 0 3.1816e-07 -7.4277e-07 -2.34268e-07 3.58977e-07 -7.73361e-08 -1.04111e-07 0.000116931 0.000103106 2.75604e-05 0.004 481.274 2.23524 
722 1 1 0.00164033 0.0322874 0.00396635 0 0 0 4.22042e-07 -5.12034e-07 -5.57159e-07 4.76639e-07 7.36164e-09 4.93093e-08 -2.08139e-06 0.000136464 5.28632e-05 0.004 566.845 -0.418299 
2 1 1 0.0229311 0.031696 0.00396244 0 0 0 8.41632e-07 -1.05039e-07 -7.90982e-07 5.10547e-07 2.85902e-07 -3.31667e-08 4.90671e-05 0.000179532 3.51997e-05 0.004 734.575 -4.37128 
254 1 1 0.0304699 0.0344334 0.0039815 0 0 0 0.000481608 -0.000706171 8.68073e-10 5.32886e-14 -7.8165e-14 7.40103e-10 0.176952 0.120681 -0.0211551 0.004 798.547 0 
257 1 1 -0.0296322 0.0352231 0.00395613 0 0 0 -3.83119e-08 -5.54813e-07 2.10569e-07 1.27668e-07 3.21434e-08 -1.60507e-07 7.81416e-05 -4.74629e-05 -0.000119367 0.004 327.836 3.46764 
582 1 1 -0.0157655 0.0356206 0.00393205 0 0 0 -4.54301e-08 -1.31973e-06 -9.51238e-08 1.52014e-07 1.46176e-06 3.2648e-08 0.000330751 2.03308e-06 -0.00017505 0.004 370.239 4.77341 
255 1 1 -0.00267125 0.038932 0.00391148 0 0 0 9.99517e-08 -4.69668e-07 -1.33954e-07 4.86978e-07 1.41561e-07 -2.47183e-07 8.54694e-05 2.00166e-05 2.15317e-05 0.004 519.28 1.11224 
887 1 1 0.00812084 0.0373183 0.00392889 0 0 0 4.27518e-07 -1.57321e-07 -5.34741e-07 3.96365e-07 2.49301e-07 -8.83548e-08 6.79255e-05 5.51233e-05 4.15385e-05 0.004 650.57 -3.69241 
719 1 1 0.0157853 0.0351951 0.00398363 0 0 0 3.01915e-07 -1.3717e-07 -2.71561e-07 3.34034e-07 2.22983e-07 -3.33351e-08 1.1984e-05 -4.89542e-05 1.3464e-05 0.004 702.571 -4.53601 
21 1 1 0.0234243 0.0396338 0.00391497 0 0 0 2.06328e-07 -6.31573e-08 -2.22515e-07 2.68646e-07 3.05068e-08 -3.07167e-08 4.66831e-05 2.6659e-05 6.05675e-05 0.004 737.779 -4.56093 
325 1 1 -0.0222388 0.0402984 0.00393951 0 0 0 9.44305e-09 -4.82253e-07 9.3257e-08 -1.00762e-07 2.33114e-07 -3.08351e-07 7.41161e-05 -4.31103e-05 -5.84135e-05 0.004 358.455 4.72903 
595 1 1 -0.014931 0.0435393 0.00398254 0 0 0 2.07398e-07 -4.64355e-07 3.29524e-07 -2.83479e-07 4.09581e-07 -4.14739e-07 -7.51565e-05 5.32321e-05 6.88887e-05 0.004 394.502 4.58168 
568 1 1 0.0162912 0.0430934 0.00392629 0 0 0 1.05918e-07 -5.15467e-08 -1.69234e-07 1.83099e-07 9.44665e-08 2.09973e-08 5.76206e-06 -1.03678e-05 -8.53197e-06 0.004 699 -4.41299 
387 1 1 -0.00719691 0.045487 0.00389933 0 0 0 2.23781e-08 -2.69634e-07 5.56953e-08 1.66746e-07 4.99429e-08 -2.12806e-07 2.4974e-05 -1.5105e-06 2.1364e-06 0.004 484.073 2.3197 
852 1 1 0.000758888 0.0460615 0.00397617 0 0 0 2.47062e-08 -1.71387e-07 1.17448e-08 9.99117e-08 8.43515e-08 -1.58401e-07 3.54444e-06 3.06812e-05 1.52451e-05 0.004 555.28 -0.217084 
157 1 1 0.00865317 0.0452492 0.00389824 0 0 0 7.0018e-08 -3.41844e-08 -2.09646e-07 2.13487e-07 1.08069e-07 4.32826e-08 2.33408e-05 9.79996e-06 2.88166e-05 0.004 639.322 -3.11766 
400 1 1 -0.024752 -0.0387964 0.00974418 0 0 0 5.65783e-07 -6.11777e-07 3.34536e-07 3.35902e-07 2.1238e-07 1.3755e-07 7.62028e-05 4.87518e-05 -7.39907e-05 0.004 354.758 4.55203 
606 1 1 -0.000653939 -0.0387266 0.00813892 0 0 0 8.53424e-07 -2.02897e-06 -6.39441e-07 1.17864e-06 5.8762e-08 -3.86316e-07 -0.000212035 0.000214644 -0.000197983 0.004 547.598 0.377292 
724 1 1 -0.0339144 -0.0311598 0.00984801 0 0 0 8.70867e-07 -5.51767e-07 2.55754e-07 -1.18751e-07 1.32665e-07 1.98453e-07 2.84355e-05 0.000132573 -7.15805e-05 0.004 323.99 2.90701 
183 1 1 0.0251947 -0.0311656 0.00751475 0 0 0 9.78477e-07 -9.34439e-07 -1.5479e-06 1.05528e-06 -3.08554e-07 -1.08002e-07 -0.000166621 7.19063e-05 -7.12482e-05 0.004 743.132 -4.19755 
544 1 1 -0.0140218 -0.0253028 0.00874965 0 0 0 2.75509e-06 -3.67103e-06 5.58222e-07 -2.17597e-07 -4.81121e-07 -2.91937e-07 8.23162e-05 0.000113632 -7.82272e-05 0.004 409.283 3.78629 
29 1 1 -0.00450628 -0.0263793 0.00900729 0 0 0 2.70693e-06 -3.6709e-06 -8.04898e-07 2.46337e-07 -1.92385e-07 -1.32879e-06 0.000130818 0.000261661 -0.000171308 0.004 492.906 2.04603 
248 1 1 0.00349901 -0.0278426 0.00763309 0 0 0 1.48116e-06 -2.94744e-06 -1.44693e-06 1.18854e-06 1.98761e-07 -1.29668e-06 -0.000450914 0.000173335 0.000189367 0.004 590.221 -1.32733 
79 1 1 0.035837 -0.0289489 0.00959647 0 0 0 7.94871e-07 -8.41866e-07 -1.15342e-06 4.18993e-07 -1.89505e-08 2.65396e-07 4.32716e-05 -0.000213372 0.000127647 0.004 773.389 -3.11516 
291 1 1 -0.00458871 -0.0173975 0.00909524 0 0 0 3.08843e-06 -3.5077e-06 -9.41942e-07 -4.66685e-07 -5.78875e-07 -8.63042e-07 -5.5201e-05 -2.97074e-05 5.37031e-05 0.004 504.722 1.35947 
891 1 1 0.00373489 -0.015528 0.00632509 0 0 0 2.2122e-06 -3.06358e-06 -2.59726e-06 2.26576e-08 -7.99815e-07 -1.1179e-06 -0.000478939 -8.2025e-05 -6.60707e-05 0.004 589.078 -1.183 
870 1 1 0.0138323 -0.0156364 0.00831017 0 0 0 4.47542e-06 -2.71507e-06 -3.67093e-06 9.35108e-07 -7.77696e-07 -1.2481e-06 -4.08594e-05 0.00017485 0.000299695 0.004 685.013 -3.68707 
777 1 1 0.034969 -0.018778 0.00771 0 0 0 1.32539e-06 -8.43563e-07 -1.50314e-06 1.59677e-07 7.42443e-08 4.5314e-07 -0.000466004 9.62979e-05 -0.000168291 0.004 782.42 -2.39473 
837 1 1 -0.029449 -0.0146727 0.00803326 0 0 0 3.00148e-06 -1.85195e-06 9.80666e-07 -8.77001e-07 -3.56084e-07 2.68247e-07 9.8431e-05 2.90741e-06 -0.000311457 0.004 327.399 2.68732 
445 1 1 -0.0181359 -0.0138493 0.00995276 0 0 0 4.1312e-06 -5.04153e-06 -3.50083e-07 -1.7149e-06 -1.83809e-06 -2.43822e-08 0.000128634 -4.51529e-05 -0.000259221 0.004 378.828 3.70084 
783 1 1 0.00485899 -0.00860656 0.00993769 0 0 0 5.34279e-06 -4.2688e-06 -4.90828e-06 8.42518e-07 -1.79391e-06 -1.02415e-06 0.000265288 0.000385958 -0.00057863 0.004 603.612 -1.64884 
615 1 1 -0.0350999 -0.000758709 0.00955182 0 0 0 2.34249e-06 -2.19784e-06 3.78587e-07 -8.94565e-07 -2.59314e-07 3.00479e-07 0.000176114 0.000156526 -0.000193431 0.004 314.259 1.80952 
476 1 1 -0.0459521 0.00262139 0.00988978 0 0 0 7.08577e-07 -6.97681e-07 5.50296e-07 -1.93041e-07 2.39144e-08 2.416e-07 -3.24294e-05 -4.34911e-05 1.14989e-05 0.004 304.045 0.887549 
16 1 1 -0.0210456 0.00169439 0.00830927 0 0 0 2.82711e-06 -3.6335e-06 -1.40517e-06 -8.51723e-07 -1.45275e-06 -6.98961e-07 9.88647e-05 0.000203311 -5.93896e-05 0.004 360.304 3.51835 
303 1 1 0.0459492 0.00350463 0.00962656 0 0 0 1.51398e-06 -1.46302e-07 -1.4568e-06 3.07513e-07 5.1441e-08 -2.14246e-07 4.35975e-05 -0.000322149 7.07542e-05 0.004 795.057 -1.02515 
523 1 1 -0.0389797 0.00803081 0.00932861 0 0 0 1.54372e-06 -1.46688e-06 8.6926e-07 -1.68973e-07 2.75642e-09 5.87606e-07 9.15618e-05 0.000107834 -1.33476e-05 0.004 309.777 1.50325 
704 1 1 -0.010798 0.00519223 0.0074386 0 0 0 2.92804e-06 -3.46884e-06 -2.54324e-06 -2.40966e-07 -1.56423e-06 -9.66233e-07 0.000129994 0.000103437 0.000153304 0.004 432.738 3.21683 
454 1 1 0.0010118 0.00715932 0.00933957 0 0 0 4.4666e-06 -2.90927e-06 -4.19672e-06 8.71695e-07 -1.31506e-06 -8.73688e-07 -9.85493e-05 0.000134627 -0.00012418 0.004 554.535 -0.0252288 
31 1 1 0.0102164 0.00547591 0.00832591 0 0 0 5.72838e-06 -2.93336e-06 -5.94886e-06 8.43773e-07 -1.77595e-06 -6.531e-07 0.000349775 0.000555216 0.000253385 0.004 651.597 -2.85524 
135 1 1 0.0188886 0.0074917 0.00960784 0 0 0 6.43365e-06 -2.04051e-06 -4.0065e-06 1.13461e-06 -5.20674e-07 -1.60671e-07 -0.000210226 0.000949232 0.000300583 0.004 737.44 -4.14647 
712 1 1 0.0281139 0.00743266 0.00998855 0 0 0 5.38243e-06 6.46873e-07 -4.88812e-06 9.06356e-07 1.10874e-06 -7.3892e-07 -0.000436375 0.000513036 -0.000172626 0.004 767.985 -3.09079 
210 1 1 0.0394934 0.00814606 0.0098988 0 0 0 3.43855e-06 -3.12275e-07 -2.16374e-06 4.17119e-07 8.14739e-08 -4.66332e-07 5.16094e-05 0.000619802 4.15658e-05 0.004 790.97 -1.49008 
651 1 1 -0.0437987 0.0143398 0.00823566 0 0 0 5.41031e-07 -6.08671e-07 3.54672e-07 -2.38018e-08 3.38578e-09 2.48052e-07 -9.46611e-08 4.36059e-05 -3.41187e-05 0.004 306.992 1.30678 
621 1 1 0.0437182 0.0147846 0.00900765 0 0 0 1.68085e-06 -1.69356e-07 -1.36772e-06 2.50725e-07 -1.82184e-08 -1.41639e-07 0.000128671 -0.000170393 0.000154943 0.004 789.923 -1.60639 
726 1 1 -0.0257657 0.0199972 0.00692825 0 0 0 7.31719e-07 -1.49927e-06 1.35007e-07 1.21171e-07 -7.00089e-08 -4.04328e-07 -0.000123786 -6.7158e-05 -1.20967e-07 0.004 337.66 3.39071 
230 1 1 -0.00847466 0.024595 0.00973776 0 0 0 1.36996e-06 -2.77893e-06 -1.31842e-06 1.02224e-06 -7.96158e-07 -5.07058e-07 9.73096e-05 0.0001952 0.000204346 0.004 471.132 2.63286 
320 1 1 -0.00171266 0.020405 0.00979386 0 0 0 2.14427e-06 -2.39101e-06 -2.46876e-06 7.92289e-07 -9.05497e-07 -5.79416e-07 -2.15125e-05 -1.31854e-05 -4.57118e-05 0.004 531.455 1.00981 
7 1 1 0.0129211 0.0224303 0.00918518 0 0 0 2.74843e-06 -1.10124e-06 -2.59524e-06 3.40988e-07 8.96958e-08 1.91882e-07 0.000156365 0.000357525 0.000255391 0.004 676.638 -3.35541 
83 1 1 0.0214164 0.0239651 0.00888425 0 0 0 1.94417e-06 -4.65417e-07 -2.48213e-06 8.7366e-07 6.585e-07 1.5022e-07 0.000222014 0.000425244 0.000174937 0.004 739.81 -3.7924 
747 1 1 -0.0337321 0.0313835 0.00974072 0 0 0 4.07829e-07 -8.21998e-07 4.46735e-07 8.20321e-08 -3.34072e-08 -4.68046e-08 3.74318e-05 -6.53848e-05 -2.70039e-05 0.004 326.134 3.02878 
51 1 1 -0.0226192 0.0329654 0.00703451 0 0 0 2.56578e-07 -1.17485e-06 1.87508e-07 4.54601e-07 2.41794e-07 -2.99419e-08 -9.72853e-05 0.000128028 0.000119322 0.004 345.345 4.16694 
116 1 1 -0.00940735 0.0391203 0.00809817 0 0 0 2.28653e-07 -9.34259e-07 1.25349e-07 5.06881e-07 1.74057e-07 -4.87444e-07 3.08857e-05 2.22238e-05 3.75749e-05 0.004 472.321 2.66792 
205 1 1 -0.000560456 -0.0460776 0.0110171 0 0 0 3.66974e-07 -1.01915e-06 6.57002e-08 1.076e-06 -2.40027e-08 -8.73642e-09 4.624e-05 6.24257e-05 -2.79672e-05 0.004 548.304 0.622839 
836 1 1 0.00737985 -0.0454688 0.0106611 0 0 0 4.02014e-07 -1.10814e-06 -5.03854e-07 6.61202e-07 -8.23555e-08 -3.96045e-07 -5.72182e-05 0.000130422 -2.42975e-05 0.004 606.422 -2.01284 
486 1 1 -0.0156916 -0.0402432 0.0103352 0 0 0 5.53423e-07 -1.03108e-06 5.53922e-07 8.31376e-07 -1.64002e-07 -3.72613e-07 -0.00022061 5.3108e-05 -0.000252982 0.004 399.341 4.73262 
311 1 1 -0.00836811 -0.0439882 0.0106791 0 0 0 9.02098e-07 -1.69442e-06 -1.46481e-07 6.04885e-07 8.65498e-07 -7.8463e-07 0.000238588 0.000104777 0.000153509 0.004 451.545 4.96828 
447 1 1 0.0180551 -0.0423881 0.0118323 0 0 0 5.6362e-07 -1.15778e-06 -7.55362e-07 4.64235e-07 -3.51448e-07 -7.39349e-07 -5.42528e-05 -0.000152465 8.42172e-05 0.004 684.531 -4.33696 
538 1 1 -0.0295743 -0.0353509 0.0149849 0 0 0 9.95245e-07 -8.92956e-07 4.88254e-07 -1.12984e-07 5.32411e-08 1.89724e-07 6.98994e-05 -7.74991e-05 -0.000131369 0.004 336.417 3.59938 
279 1 1 0.011155 -0.0385417 0.0114153 0 0 0 1.46532e-06 -2.28487e-06 -1.12885e-06 1.32421e-06 5.63651e-08 -1.21076e-06 0.000189846 9.84914e-05 -0.000113782 0.004 644.216 -3.13508 
110 1 1 0.0250464 -0.0386627 0.0117241 0 0 0 4.74192e-07 -8.60456e-07 -4.66895e-07 4.04033e-07 -2.04389e-07 2.65681e-07 -5.50744e-06 -1.19155e-05 2.49421e-05 0.004 725.466 -4.5617 
188 1 1 -0.0179041 -0.0321007 0.0101564 0 0 0 1.83363e-06 -2.69512e-06 8.00779e-07 2.81961e-07 -5.33061e-07 -2.48018e-07 0.000235651 0.000114946 -0.000263765 0.004 387.359 4.12907 
810 1 1 -0.0102601 -0.034451 0.0102036 0 0 0 1.91836e-06 -2.94209e-06 -1.11854e-08 8.87555e-07 -8.88727e-08 -9.77721e-07 0.0001022 0.000182942 -0.000246823 0.004 442.874 3.50459 
412 1 1 -0.00316744 -0.0328806 0.0133527 0 0 0 2.71313e-06 -3.82184e-06 -7.39476e-07 1.53484e-06 1.02703e-07 -1.9104e-06 -4.22015e-05 9.22634e-05 9.93901e-06 0.004 505.976 1.63791 
545 1 1 0.00452053 -0.0343088 0.0121942 0 0 0 2.45652e-06 -2.97866e-06 -7.90333e-07 1.80368e-06 5.29837e-07 -1.4802e-06 0.000292119 -7.42617e-05 -6.98056e-05 0.004 593.014 -1.36086 