ITEM: TIMESTEP
19200
ITEM: NUMBER OF ATOMS
891
ITEM: BOX BOUNDS mm mm mm
-0.05 0.05
-0.05 0.05
0 0.15
ITEM: ATOMS id type type x y z ix iy iz vx vy vz fx fy fz omegax omegay omegaz radius f_Temp[0] f_heatFlux[0] 
199 1 1 -0.00444373 -0.0458159 0.00397433 0 0 0 -2.30123e-06 -1.80879e-05 -2.83047e-06 9.99087e-06 3.38646e-05 -1.16229e-06 0.00226 -0.000901814 0.000672768 0.004 300 0 
873 1 1 -0.0201484 -0.0414789 0.00390161 0 0 0 3.46926e-06 4.78735e-06 1.56828e-05 -4.31141e-05 2.32177e-05 2.03049e-06 0.000792774 0.000956479 -0.00162306 0.004 300 0 
485 1 1 -0.0126796 -0.0442534 0.00397266 0 0 0 -1.32666e-06 4.35606e-06 6.61939e-06 5.11193e-06 1.75087e-05 -2.6533e-05 -0.000591569 5.05876e-05 0.00316202 0.004 300 0 
850 1 1 0.00335647 -0.0441759 0.00394106 0 0 0 4.14089e-06 -1.80289e-05 1.09832e-05 -3.91166e-05 2.83524e-05 1.48207e-05 0.00467858 -0.000665934 0.00711639 0.004 300 0 
186 1 1 0.0114402 -0.0445988 0.00392827 0 0 0 8.4454e-06 -1.02158e-05 -8.75726e-07 -1.51796e-05 2.17023e-05 -6.57101e-06 0.00314911 -0.00318417 -0.000300295 0.004 300 0 
560 1 1 0.018969 -0.0420006 0.00394677 0 0 0 2.7913e-05 3.43535e-06 7.43605e-07 -4.33496e-07 4.19328e-05 2.35052e-06 -0.0038932 0.0121235 0.000684072 0.004 300 0 
102 1 1 -0.0147501 -0.0357331 0.00386312 0 0 0 -2.88522e-06 8.12763e-06 4.94689e-06 -4.58666e-05 1.33455e-05 1.91506e-05 -0.000694009 0.000798419 0.00405719 0.004 300 0 
88 1 1 -0.00730753 -0.0383837 0.00392725 0 0 0 1.38917e-06 -1.16054e-05 8.99729e-06 -4.68779e-05 1.95396e-05 -3.49986e-06 0.00126616 -0.00304812 -0.0096635 0.004 300 0 
776 1 1 0.00520398 -0.0354368 0.00395028 0 0 0 2.44019e-06 -4.78353e-05 -2.59601e-05 -3.02561e-05 4.26824e-05 7.35963e-06 0.0095318 -0.00344262 0.00647051 0.004 300 0 
410 1 1 0.0130237 -0.0368131 0.00392575 0 0 0 1.55574e-05 -1.31197e-05 -2.88239e-08 -3.23092e-06 7.07374e-05 8.70158e-06 -0.000985074 -0.00316176 0.000549519 0.004 300 0 
282 1 1 0.025876 -0.0381319 0.00388542 0 0 0 -3.78255e-08 9.8897e-06 -1.88689e-06 4.49493e-05 6.68238e-05 -6.51699e-06 0.00106447 -0.0044468 -0.000314519 0.004 300 0 
682 1 1 -0.0302015 -0.0348779 0.00393468 0 0 0 5.20205e-06 1.38082e-05 1.96184e-05 -1.42553e-05 6.621e-06 4.47509e-06 0.0036491 0.00550626 -0.00104702 0.004 300 0 
251 1 1 -0.0224188 -0.0338476 0.00392343 0 0 0 -5.23178e-06 9.48883e-06 4.07859e-06 -3.34546e-05 3.49104e-05 2.16393e-05 5.47782e-06 -0.00207588 -0.000188132 0.004 300 0 
770 1 1 -0.0020474 -0.0321407 0.00393967 0 0 0 4.93089e-06 -4.83383e-05 -5.11648e-06 -5.3705e-05 -2.4112e-05 -3.17079e-05 0.0118599 0.00456167 -0.0135337 0.004 300 0 
883 1 1 0.0181661 -0.0307535 0.00390053 0 0 0 2.01551e-05 6.86029e-06 1.48124e-05 -8.90835e-06 6.86945e-05 -5.59843e-05 -0.00317612 0.00104727 0.0114677 0.004 300 0 
838 1 1 0.0320336 -0.033109 0.00396115 0 0 0 9.90113e-06 2.98555e-07 -8.67717e-07 6.73769e-05 7.6999e-05 -7.68722e-05 -0.00295107 0.00320842 -0.00242206 0.004 300 0 
617 1 1 -0.037252 -0.0271215 0.00391652 0 0 0 2.079e-06 1.67611e-05 1.94763e-05 -9.78701e-06 8.82063e-06 -1.77944e-05 -0.000876683 -0.00184157 0.00305286 0.004 300 0 
824 1 1 -0.0292997 -0.02703 0.0039299 0 0 0 -1.9584e-06 3.10774e-05 3.05766e-05 -1.97489e-05 3.72678e-05 -1.62841e-06 -0.000720557 -0.000909609 0.00207498 0.004 300 0 
571 1 1 -0.0202613 -0.0262215 0.00393293 0 0 0 -1.67497e-05 4.35208e-05 2.43693e-05 -5.85977e-05 5.89739e-05 -2.85849e-05 -0.00230844 -0.00463618 0.00214369 0.004 300 0 
861 1 1 -0.00959287 -0.0297305 0.00389701 0 0 0 -1.97411e-05 1.67412e-05 -2.25555e-06 -3.09356e-05 -1.75592e-05 7.81748e-06 -0.00351681 -0.00591186 0.00090074 0.004 300 0 
434 1 1 0.0103456 -0.0293807 0.00393753 0 0 0 2.13645e-05 -3.22978e-05 2.2261e-06 -3.81014e-05 8.14291e-05 -2.65872e-05 0.00425549 0.00192037 -0.00326711 0.004 300 0 
103 1 1 0.0311548 -0.0252347 0.00394405 0 0 0 2.90611e-05 -1.74505e-05 2.12796e-06 -5.16012e-06 3.07832e-05 -3.52452e-05 0.00396327 0.00915608 -0.00327108 0.004 300 0 
769 1 1 -0.041344 -0.0202818 0.00398234 0 0 0 -1.78627e-06 1.17647e-05 2.30332e-05 -3.04743e-05 -2.83781e-06 -1.17858e-05 0.00313764 -0.00451582 0.000996643 0.004 300 0 
94 1 1 -0.0333713 -0.0202164 0.00394376 0 0 0 2.84372e-06 3.06266e-05 5.34743e-05 -3.48806e-05 2.68184e-05 -3.16495e-05 0.00337315 -0.00192628 -0.00127217 0.004 300 0 
40 1 1 -0.0254009 -0.0201464 0.00391767 0 0 0 -7.62327e-06 4.74293e-05 3.27319e-05 -3.8829e-05 4.86453e-05 -3.76712e-05 -0.00186755 0.00274922 0.000758208 0.004 300 0 
19 1 1 -0.00865067 -0.0218805 0.00393972 0 0 0 -2.77751e-05 1.36706e-05 -8.16107e-06 -2.4483e-05 8.90225e-06 1.60157e-06 -0.00150373 -0.00843065 -0.000375994 0.004 300 0 
442 1 1 -0.000436905 -0.02185 0.00393585 0 0 0 -1.84267e-05 -2.3261e-05 6.26044e-06 -6.69377e-06 -1.64229e-05 2.08175e-06 0.00475364 -0.00393998 -0.00974792 0.004 300 0 
259 1 1 0.00753201 -0.0220001 0.00392522 0 0 0 1.42833e-05 -4.57986e-05 9.30242e-06 -6.04955e-06 5.66656e-05 -5.53737e-05 0.00578186 0.0043909 0.00517681 0.004 300 0 
512 1 1 0.0153884 -0.0232357 0.00397855 0 0 0 2.03191e-05 1.58243e-06 1.913e-05 -1.72776e-05 0.000112246 -5.359e-05 -0.0034834 -0.00274283 0.00882216 0.004 300 0 
470 1 1 0.0232616 -0.0243591 0.00390856 0 0 0 3.37952e-05 1.67322e-05 1.83288e-05 -4.73976e-06 6.65487e-05 -4.02718e-05 -0.00326401 0.00429872 -0.00391539 0.004 300 0 
451 1 1 0.0390292 -0.0244873 0.00392061 0 0 0 9.22743e-06 -2.44811e-05 -1.50534e-05 9.07677e-06 6.11356e-05 5.61448e-05 0.00716454 -0.00290101 0.00395252 0.004 300 0 
531 1 1 -0.0164594 -0.0192005 0.00396134 0 0 0 -1.42e-05 5.4543e-05 5.02768e-06 -6.38335e-05 5.77065e-05 -8.09154e-05 -0.0131443 -0.00282486 0.00128303 0.004 300 0 
229 1 1 0.0202063 -0.0169137 0.00386898 0 0 0 3.37072e-05 9.54246e-06 1.11687e-05 -3.54895e-05 8.93896e-05 -2.38792e-05 -0.00184906 -0.00131171 -0.00695219 0.004 300 0 
734 1 1 0.0280528 -0.0179421 0.00394417 0 0 0 4.31908e-05 -3.88056e-06 3.56523e-05 -4.96856e-05 2.32366e-05 2.86645e-05 -0.00157581 0.000390612 -0.00575858 0.004 300 0 
635 1 1 0.042598 -0.0174494 0.00392196 0 0 0 -1.02841e-05 -6.7645e-06 2.12952e-05 2.37096e-05 7.11715e-05 1.78743e-05 0.00192853 -0.000710205 0.00240952 0.004 300 0 
87 1 1 -0.0448223 -0.010464 0.00391424 0 0 0 -1.98192e-06 7.77046e-06 9.59971e-06 -4.54796e-05 5.68762e-05 8.79277e-06 -0.00052238 -0.00260753 0.000574296 0.004 300 0 
406 1 1 -0.037395 -0.0133911 0.00396019 0 0 0 7.4031e-06 3.31066e-05 5.31269e-05 -6.2623e-05 5.99608e-08 -3.54181e-06 -0.00308171 -0.00274633 -0.000165571 0.004 300 0 
224 1 1 -0.0230579 -0.012602 0.00387974 0 0 0 -1.02524e-05 6.38114e-05 5.38395e-05 -2.37818e-05 2.18595e-05 -5.94458e-05 -0.0059643 -0.0070888 0.00111884 0.004 300 0 
751 1 1 -0.0102995 -0.0141546 0.00396948 0 0 0 -8.79953e-06 1.0732e-05 1.19311e-05 -7.53445e-05 6.93764e-08 -2.86258e-06 0.00808271 -0.00290289 -0.00597431 0.004 300 0 
622 1 1 -0.00273379 -0.011741 0.00388527 0 0 0 1.83066e-05 -2.89448e-05 2.02931e-05 -5.12887e-05 1.26728e-05 3.64869e-05 0.00451919 0.00853733 -0.00395115 0.004 300 0 
128 1 1 0.00951085 -0.0106851 0.00388459 0 0 0 1.35262e-06 -4.37164e-05 1.44486e-05 -5.48497e-05 5.82956e-05 1.60809e-05 0.00654036 -6.64463e-05 -0.00578418 0.004 300 0 
68 1 1 0.0262816 -0.010211 0.00395427 0 0 0 4.66386e-05 -3.17201e-06 5.11834e-05 -1.41583e-05 1.81668e-05 3.51596e-05 0.00493879 0.00785582 0.0099155 0.004 300 0 
791 1 1 0.0340944 -0.0118578 0.00392797 0 0 0 3.8686e-05 -5.72203e-06 2.26237e-05 -2.83409e-05 3.07695e-06 6.03659e-06 0.00485948 0.00705183 -0.0105976 0.004 300 0 
354 1 1 -0.0380748 -0.00550401 0.00392051 0 0 0 3.87856e-05 3.67357e-05 4.6453e-05 -2.86901e-05 1.31492e-06 1.31263e-05 -0.0018244 0.00765195 -0.0047228 0.004 300 0 
725 1 1 -0.0304899 -0.00800538 0.00392524 0 0 0 9.8886e-06 4.07595e-05 4.28346e-05 -8.28499e-05 4.07855e-05 1.18981e-05 -0.00508983 0.000889228 -0.00157277 0.004 300 0 
353 1 1 -0.0161287 -0.0087982 0.00391154 0 0 0 9.12822e-06 4.58768e-05 3.51304e-05 -6.37209e-05 3.43452e-05 -2.69828e-05 -0.00765373 0.00425526 -0.00539468 0.004 300 0 
391 1 1 -0.00857652 -0.00639752 0.00391368 0 0 0 1.91475e-05 8.10901e-06 2.95131e-05 -7.29335e-05 -3.57541e-06 2.82653e-06 -0.00227253 -0.000808078 -0.00306159 0.004 300 0 
683 1 1 0.0173536 -0.00945647 0.00391009 0 0 0 1.72085e-05 -4.21339e-06 2.32546e-05 -3.95422e-05 7.50141e-05 3.51953e-07 0.0053613 0.00193747 0.0229226 0.004 300 0 
690 1 1 0.0385535 -0.00520229 0.00390015 0 0 0 4.25247e-05 2.63332e-05 5.15754e-05 -5.0349e-06 -6.69782e-05 1.20969e-05 -0.00589999 0.0094242 0.00235182 0.004 300 0 
10 1 1 0.0449636 -0.00990883 0.0039739 0 0 0 9.4312e-07 -8.87881e-06 4.10401e-05 1.19997e-06 9.6941e-06 -3.42632e-05 0.00425078 0.000475027 -0.00512742 0.004 300 0 
402 1 1 -0.0460169 -0.00264176 0.00392188 0 0 0 1.86768e-05 7.13872e-06 2.76769e-05 -2.7986e-05 -2.54602e-05 3.77938e-06 0.00143075 -3.30844e-05 -0.00157137 0.004 300 0 
761 1 1 -0.0294742 -0.00016842 0.00392578 0 0 0 2.96167e-05 4.98072e-05 5.33967e-05 -0.000100483 5.30135e-05 3.50988e-06 -0.00362009 0.00525791 -0.00280605 0.004 300 0 
293 1 1 -0.0229322 -0.0046688 0.00395964 0 0 0 1.43729e-05 5.90359e-05 5.00845e-05 -9.24257e-05 9.97756e-06 -1.54458e-05 -0.000376231 0.000914107 -0.000740672 0.004 300 0 
384 1 1 -0.0146684 -0.000914902 0.0039815 0 0 0 -0.000883548 0.000686052 8.70428e-07 -2.90706e-10 -1.69937e-09 6.12444e-07 -0.171911 -0.221399 0.233621 0.004 300 0 
378 1 1 0.00130619 -0.00490406 0.00392911 0 0 0 6.6802e-06 -3.40923e-05 1.11584e-05 -6.52282e-05 4.44839e-06 6.16435e-06 0.00161012 -0.00233412 -0.000780131 0.004 300 0 
390 1 1 0.0103708 -0.00276534 0.00396886 0 0 0 1.28638e-05 -2.46868e-05 8.88217e-06 -4.22049e-05 3.01655e-05 -1.74691e-05 0.00214249 0.00113723 0.00577316 0.004 300 0 
411 1 1 0.0223607 -0.00329303 0.00397618 0 0 0 4.80505e-05 2.24552e-05 1.27104e-05 -1.46546e-05 2.45389e-05 3.36072e-05 -0.0107808 0.00418543 -0.0240955 0.004 300 0 
342 1 1 0.0307349 -0.0036167 0.00397482 0 0 0 3.85147e-05 4.85059e-05 6.50757e-05 -2.58219e-05 -7.81128e-06 1.67388e-05 -0.00548218 0.00438808 -0.00264849 0.004 300 0 
262 1 1 0.0460221 -0.00206505 0.00395822 0 0 0 -7.58875e-06 -1.5159e-05 3.7886e-05 -1.02475e-06 1.72616e-05 -5.47551e-06 0.00202576 0.00287795 0.00765154 0.004 300 0 
261 1 1 -0.0398213 0.00224596 0.00393486 0 0 0 2.24584e-05 2.29465e-05 5.952e-05 -3.83765e-05 -6.1239e-07 3.56862e-05 -0.000153041 -0.00384225 0.00305448 0.004 300 0 
666 1 1 -0.00454665 0.000451378 0.0039562 0 0 0 3.96994e-05 -1.33979e-05 2.62739e-05 -8.62678e-05 -2.63133e-06 -3.4408e-05 0.00181593 0.0094225 -0.00504611 0.004 300 0 
815 1 1 0.00434372 0.0024356 0.00392724 0 0 0 8.34068e-07 -3.55516e-05 9.29594e-06 1.11489e-05 -9.33546e-06 -2.22067e-05 0.00346152 0.00235472 0.000252214 0.004 300 0 
306 1 1 0.0163701 0.00247669 0.00395805 0 0 0 7.14248e-05 -1.27343e-05 -3.28507e-05 -1.06504e-05 -2.72295e-05 1.64422e-05 0.00131052 0.0122622 -0.0174035 0.004 300 0 
178 1 1 0.0241042 0.00444171 0.00386106 0 0 0 7.73764e-05 3.13461e-05 -2.67873e-05 -2.78362e-05 1.70342e-05 3.98429e-05 -0.00157193 0.0105606 0.0184643 0.004 300 0 
862 1 1 0.0320657 0.00423352 0.00393095 0 0 0 4.96636e-05 5.85372e-05 8.9872e-08 -3.34578e-05 -1.37151e-05 6.32704e-05 -0.0137945 0.00359504 -0.00409565 0.004 300 0 
661 1 1 0.0398756 0.00291464 0.0039467 0 0 0 5.63034e-06 1.60871e-06 2.82466e-05 -2.15043e-06 9.05292e-06 3.56491e-05 -0.000756026 -0.0045175 -0.0129238 0.004 300 0 
677 1 1 -0.0453781 0.00788542 0.00393645 0 0 0 2.73665e-05 8.47212e-06 3.82791e-05 -6.88329e-05 -8.30937e-05 2.15715e-05 -0.00406509 0.00289477 -0.000624723 0.004 300 0 
12 1 1 -0.033316 0.00671953 0.0039371 0 0 0 2.10137e-05 4.18774e-05 5.72133e-05 -4.87536e-05 4.03987e-05 5.20547e-06 -0.00382542 0.00606564 0.00315236 0.004 300 0 
420 1 1 -0.0253998 0.00664831 0.00392704 0 0 0 2.46675e-05 6.0044e-05 4.04022e-05 -7.55158e-05 2.79936e-05 1.36234e-06 -0.0118138 -0.00350136 0.00494949 0.004 300 0 
654 1 1 -0.0175133 0.0072094 0.00387232 0 0 0 4.22327e-05 2.14591e-05 4.14482e-05 -0.000104786 1.73533e-05 2.77365e-05 -0.00735693 0.00544056 -0.0109593 0.004 300 0 
145 1 1 -0.00454399 0.00836536 0.00386335 0 0 0 4.68159e-05 -1.52017e-05 2.47166e-05 -5.10335e-05 -5.04945e-05 -5.82521e-05 0.00110907 0.00487422 -0.00221841 0.004 300 0 
624 1 1 0.0451449 0.0089065 0.00390657 0 0 0 1.03679e-05 -1.01989e-05 8.99274e-06 -2.56056e-05 2.61339e-06 3.57184e-05 0.00370242 0.0040873 0.00962111 0.004 300 0 
613 1 1 -0.037299 0.0135339 0.00384355 0 0 0 4.34322e-05 3.66637e-05 8.8323e-05 -8.48794e-05 5.91718e-06 -4.75052e-05 -0.00257527 0.00958237 -0.00378648 0.004 300 0 
265 1 1 -0.029306 0.0135429 0.00396382 0 0 0 3.70457e-05 4.85726e-05 2.63467e-05 -0.000139425 1.15995e-05 -7.23349e-06 -0.000270905 0.00800242 -0.00463515 0.004 300 0 
273 1 1 -0.0213693 0.0141273 0.00392954 0 0 0 4.52438e-05 3.28805e-05 1.26733e-05 -0.00012498 3.4792e-05 8.945e-06 -0.00519011 0.00500083 0.000757234 0.004 300 0 
492 1 1 -0.0114499 0.0123712 0.00398097 0 0 0 3.55824e-05 -1.42532e-05 6.83667e-06 -2.59454e-05 -2.21474e-05 2.2549e-05 -0.000456324 -0.00122316 0.0053013 0.004 300 0 
234 1 1 0.00585288 0.0103929 0.00392905 0 0 0 2.25601e-05 -2.55366e-05 -2.17136e-05 -2.68605e-05 -1.03554e-06 -2.66883e-05 0.00622255 0.00375125 -0.00730318 0.004 300 0 
160 1 1 0.0142843 0.0106356 0.00390967 0 0 0 2.43074e-05 -5.16353e-06 -4.73549e-05 -3.36994e-05 7.47819e-06 1.00129e-06 0.010083 0.00260603 -0.00712084 0.004 300 0 
484 1 1 0.0220894 0.0120738 0.00390121 0 0 0 1.03267e-05 3.67118e-05 -3.36075e-05 -5.92124e-05 -6.07258e-06 3.12558e-05 -0.00734234 -0.00150128 0.00624601 0.004 300 0 
743 1 1 0.0300185 0.0126214 0.00398122 0 0 0 -3.44365e-06 0.00014065 1.5603e-05 -5.85628e-05 4.05929e-05 5.35812e-05 -0.03344 -0.00383259 0.0150938 0.004 300 0 
514 1 1 0.0379538 0.0130186 0.0038689 0 0 0 -1.38577e-05 3.23397e-05 3.44954e-05 -3.9427e-05 9.12145e-06 5.44223e-05 -0.0077775 -0.00406045 -0.0326702 0.004 300 0 
530 1 1 -0.0159001 0.0198647 0.00392811 0 0 0 2.86115e-05 6.43976e-06 4.83252e-05 -4.60421e-05 -4.97744e-06 -3.84175e-05 0.00820668 -0.00170013 0.00442145 0.004 300 0 
227 1 1 -0.00736487 0.0192083 0.00396621 0 0 0 3.05089e-05 -3.5116e-05 3.0277e-05 -8.59346e-05 1.56939e-05 -5.24482e-05 0.00801622 0.00513629 -0.00283867 0.004 300 0 
392 1 1 -0.000498526 0.0151513 0.00394466 0 0 0 4.02585e-05 -1.97932e-05 9.71874e-06 -6.13003e-05 6.65744e-06 -4.5605e-05 0.00198347 0.00940405 0.00527794 0.004 300 0 
493 1 1 0.00985849 0.017253 0.00394661 0 0 0 1.88411e-05 -3.91324e-06 -1.30516e-05 -6.84537e-05 3.75491e-05 -1.89759e-05 -0.000877367 0.00424276 0.0119539 0.004 300 0 
34 1 1 0.0176358 0.0187851 0.00394108 0 0 0 -2.04973e-06 5.75236e-05 -3.78346e-05 -6.9886e-05 8.98161e-05 -1.49368e-05 -0.0129768 0.00165339 0.00224526 0.004 300 0 
206 1 1 0.0255399 0.0192352 0.00396996 0 0 0 -2.1634e-05 6.1454e-05 -2.28419e-05 -7.03851e-05 3.81087e-05 -6.56397e-06 -0.000769299 -0.0090904 -0.00184682 0.004 300 0 
104 1 1 0.0334176 0.0199346 0.00389645 0 0 0 -7.55628e-06 2.58927e-05 2.68131e-05 -5.04345e-05 -3.96309e-06 4.38019e-05 -0.00605271 -0.000322889 -0.00536081 0.004 300 0 
809 1 1 -0.0412058 0.0204949 0.00395505 0 0 0 7.28001e-06 3.40232e-05 5.23213e-05 -2.65868e-05 -4.85133e-05 -4.0742e-05 -0.00753672 -0.00625024 0.010867 0.004 300 0 
773 1 1 -0.0331522 0.020453 0.00393535 0 0 0 1.83574e-05 3.40685e-05 6.31909e-05 -9.9639e-05 5.39274e-05 -3.71191e-05 -0.00683775 0.00834668 0.0140575 0.004 300 0 
792 1 1 0.00347695 0.0219734 0.00392122 0 0 0 2.05517e-05 -2.14348e-05 2.44897e-06 -0.000133905 3.97449e-05 -3.94567e-05 0.00149044 0.00110055 -0.00585834 0.004 300 0 
718 1 1 0.0413199 0.0203659 0.00392986 0 0 0 -9.95687e-07 -3.52971e-06 1.06742e-05 -2.60838e-05 7.56514e-07 1.70618e-05 0.00250166 0.00238169 0.000839409 0.004 300 0 
101 1 1 -0.0371145 0.0272994 0.00390408 0 0 0 2.09516e-05 3.29619e-05 2.44443e-05 2.64729e-05 6.68857e-05 -3.40589e-05 -0.0126142 0.00788784 -0.00834251 0.004 300 0 
246 1 1 -0.0290566 0.0272807 0.00398278 0 0 0 -7.44987e-05 5.84711e-05 1.02133e-05 2.62812e-06 2.07604e-05 -3.43809e-05 -0.0181237 -0.0281814 0.00569142 0.004 300 0 
331 1 1 -0.021228 0.0257798 0.00390035 0 0 0 4.43151e-06 1.28803e-05 7.84816e-05 -9.97998e-05 -2.0341e-05 -0.000106989 -0.000430259 0.0111558 -0.00300051 0.004 300 0 
846 1 1 -0.0134706 0.0274166 0.00397499 0 0 0 -2.35547e-05 3.24967e-05 6.01553e-05 -0.000149135 6.11286e-05 -9.32973e-05 -0.0152308 -0.00771734 0.00904232 0.004 300 0 
348 1 1 -0.00329894 0.026061 0.00393397 0 0 0 8.87559e-06 -2.43449e-05 1.78308e-05 -0.000144588 8.63784e-05 -7.44881e-05 0.00136881 0.00740901 0.0132403 0.004 300 0 
786 1 1 0.00840371 0.0281549 0.00389695 0 0 0 -1.28384e-05 -4.80376e-06 7.88095e-06 -0.000125391 6.02303e-05 -7.95821e-06 0.00435244 0.00242196 0.0163307 0.004 300 0 
316 1 1 0.0162835 0.0272927 0.0039063 0 0 0 -4.01235e-05 4.56975e-05 1.63397e-05 -0.000109147 6.98238e-05 3.721e-05 -0.0103631 -0.0104748 -0.00422598 0.004 300 0 
495 1 1 0.0288862 0.0264617 0.00396714 0 0 0 -1.46503e-05 3.88076e-05 1.17255e-05 -6.19911e-05 2.71754e-07 2.02939e-05 -0.00145654 -0.000138874 0.00143716 0.004 300 0 
863 1 1 0.0367264 0.0277633 0.00392934 0 0 0 -1.41118e-05 8.76354e-06 1.2235e-05 -3.43181e-05 8.73325e-07 2.05329e-05 -0.000886571 -0.00152637 -0.00563617 0.004 300 0 
511 1 1 -0.00761811 0.032713 0.00388575 0 0 0 4.29505e-06 -5.07706e-06 4.13243e-05 -0.000147913 0.000131831 -8.28746e-05 0.00283866 0.000885783 -0.0156281 0.004 300 0 
722 1 1 0.00164051 0.0322873 0.00396648 0 0 0 -1.55783e-05 -1.72222e-05 1.52779e-05 -0.000104626 6.949e-05 -4.59347e-05 0.00239685 -0.00706017 -0.0123989 0.004 300 0 
2 1 1 0.0229312 0.031696 0.00396241 0 0 0 -2.51582e-05 2.87182e-05 1.63147e-05 -7.36593e-05 1.76193e-05 2.77176e-05 -0.00476891 -0.000575878 -0.00020767 0.004 300 0 
254 1 1 0.0306128 0.0343025 0.0039815 0 0 0 -0.000818632 0.000870518 2.61352e-07 -6.05648e-11 -9.2042e-11 -2.50023e-07 -0.218134 -0.205132 -0.0703935 0.004 300 0 
257 1 1 -0.0296321 0.0352231 0.00395616 0 0 0 -4.96677e-05 -1.12817e-05 2.0968e-05 -5.89136e-05 -3.1824e-05 1.49717e-05 0.013242 -0.0165592 -0.0149928 0.004 300 0 
582 1 1 -0.0157652 0.0356204 0.00393216 0 0 0 -4.08558e-05 -8.2169e-05 3.46186e-05 -0.00011039 8.46869e-05 -5.66602e-05 0.0184242 -0.00442276 -0.0158704 0.004 300 0 
255 1 1 -0.00267116 0.0389319 0.00391165 0 0 0 2.47106e-05 -7.15252e-06 2.35118e-05 -3.33986e-05 8.71205e-05 -8.24847e-05 0.00108893 0.00658349 0.00397944 0.004 300 0 
887 1 1 0.00812094 0.0373182 0.00392898 0 0 0 -4.07531e-05 6.87639e-06 1.71016e-06 -4.62008e-05 4.49276e-05 -1.92304e-05 0.00206399 -0.00679136 0.000929263 0.004 300 0 
719 1 1 0.0157853 0.035195 0.00398366 0 0 0 -3.13641e-05 2.17135e-05 4.21322e-06 -4.9838e-05 5.02382e-05 -1.17118e-06 0.00355392 -0.00212796 0.00136954 0.004 300 0 
21 1 1 0.0234243 0.0396338 0.00391496 0 0 0 -1.53173e-05 6.21864e-06 1.24561e-05 -2.13717e-05 5.81193e-07 5.16475e-06 -0.000531232 -0.00234728 -0.00180178 0.004 300 0 
325 1 1 -0.0222387 0.0402984 0.00393959 0 0 0 -2.74299e-05 -1.70195e-05 2.20502e-05 -4.20266e-05 -5.50444e-05 -2.99715e-05 0.00166888 -0.00626326 -0.0126055 0.004 300 0 
595 1 1 -0.0149309 0.0435392 0.00398261 0 0 0 -1.64479e-06 -3.08801e-05 4.35095e-05 -8.0483e-05 3.40014e-06 -4.77425e-05 -0.00782291 -0.00322418 0.00233165 0.004 300 0 
568 1 1 0.0162912 0.0430934 0.00392631 0 0 0 -1.71608e-05 6.70166e-06 1.10006e-05 -1.31035e-05 1.77872e-05 -1.11136e-05 -0.00103302 -0.000293791 -0.00141299 0.004 300 0 
387 1 1 -0.0071969 0.0454869 0.00389942 0 0 0 1.26569e-05 -2.20331e-06 1.89752e-05 1.13394e-05 6.11948e-05 -7.12744e-05 -0.00480496 0.005285 0.00355242 0.004 300 0 
852 1 1 0.000758906 0.0460615 0.00397626 0 0 0 -2.80843e-06 8.63018e-06 3.08833e-06 -1.35947e-05 3.59176e-05 -6.06998e-05 -0.00223004 -0.00108508 0.00190986 0.004 300 0 
157 1 1 0.00865319 0.0452492 0.00389832 0 0 0 -1.75002e-05 1.04915e-05 1.39354e-05 -6.54785e-06 3.67953e-05 -3.60473e-05 -0.00307392 -0.00177006 -0.00425919 0.004 300 0 
400 1 1 -0.024752 -0.0387965 0.00974421 0 0 0 -3.57167e-06 3.21339e-05 2.87472e-05 -8.45139e-06 -1.04765e-06 4.21976e-05 -0.00533606 -0.0031973 -0.000393844 0.004 300 0 
606 1 1 -0.000653793 -0.0387266 0.00813887 0 0 0 1.73847e-05 -3.90063e-05 -1.48847e-06 -9.08914e-05 2.29979e-05 -6.38096e-06 -0.0154135 0.0114516 -0.00198504 0.004 300 0 
724 1 1 -0.0339143 -0.0311599 0.00984806 0 0 0 -1.30571e-05 4.39218e-05 5.9617e-05 1.07572e-05 2.45578e-05 -5.59998e-05 -0.00205557 -0.0140445 0.00356262 0.004 300 0 
183 1 1 0.0251946 -0.0311659 0.00751581 0 0 0 3.2944e-05 2.6755e-05 3.14449e-05 3.08029e-06 0.000104495 -5.67825e-05 0.00482395 0.00299892 -0.006877 0.004 300 0 
544 1 1 -0.0140216 -0.025303 0.00875004 0 0 0 -4.03038e-05 5.38958e-05 -1.69356e-07 -3.82533e-05 4.2377e-05 -3.59094e-05 -0.00100726 0.00795972 -0.00169888 0.004 300 0 
29 1 1 -0.00450619 -0.0263795 0.0090071 0 0 0 -2.02612e-05 -2.93695e-06 -1.55768e-05 -7.18993e-05 -1.18438e-05 1.53547e-05 0.00512947 0.007366 0.00333491 0.004 300 0 
248 1 1 0.00349928 -0.0278424 0.0076332 0 0 0 1.13557e-05 -8.17508e-05 -6.7547e-06 -0.000122485 -1.90377e-05 -1.65386e-05 -0.00377229 -0.00151292 0.0189632 0.004 300 0 
79 1 1 0.0358373 -0.0289485 0.00959724 0 0 0 5.90217e-05 -4.70073e-06 5.56619e-06 -3.2528e-05 1.64473e-07 -3.84751e-05 -0.0170157 0.018838 -0.00078735 0.004 300 0 
291 1 1 -0.00458862 -0.0173975 0.0090954 0 0 0 -2.22539e-05 -1.85605e-05 3.99526e-05 -3.67191e-05 1.91443e-05 1.98982e-05 0.0026954 -0.00913697 -0.017786 0.004 300 0 
891 1 1 0.00373499 -0.015528 0.00632506 0 0 0 -2.89942e-06 -6.11434e-05 1.41977e-05 -3.99534e-05 3.3071e-06 3.30037e-05 -0.000973912 -0.00535513 -0.00184258 0.004 300 0 
870 1 1 0.0138327 -0.0156363 0.00831025 0 0 0 3.94757e-05 -4.16027e-05 -2.9429e-05 -2.06891e-05 0.00012871 -2.01443e-05 0.00253241 0.00277633 0.0204889 0.004 300 0 
777 1 1 0.0349678 -0.0187806 0.00771518 0 0 0 6.52755e-05 -1.68851e-05 -8.55257e-06 -4.76821e-05 6.06025e-05 4.50852e-05 -0.00393806 0.0239863 0.000318319 0.004 300 0 
837 1 1 -0.0294488 -0.0146728 0.00803328 0 0 0 4.1109e-05 6.37141e-05 7.93486e-05 -2.03361e-05 2.54703e-05 -5.69677e-05 -0.00614534 0.0142156 0.00676964 0.004 300 0 
445 1 1 -0.0181357 -0.0138499 0.00995295 0 0 0 -3.17903e-05 7.84194e-05 8.78114e-05 -1.65231e-05 1.69131e-05 -8.3406e-05 0.00794724 -0.00236318 -0.00232336 0.004 300 0 
783 1 1 0.00485916 -0.00860663 0.00993774 0 0 0 -4.05703e-06 -5.78329e-05 2.54043e-05 -7.74108e-05 3.8128e-05 2.30637e-06 0.00369212 -0.00018346 0.00446011 0.004 300 0 
615 1 1 -0.0350997 -0.000758861 0.009552 0 0 0 4.65206e-05 7.75884e-05 0.000100502 -8.19937e-05 8.02537e-05 2.3344e-05 0.000568797 0.00233407 0.0111008 0.004 300 0 
476 1 1 -0.0459521 0.00262135 0.00988988 0 0 0 2.14868e-05 -1.03539e-05 9.94156e-05 -9.31582e-06 4.89237e-06 -2.74074e-05 0.0181937 -0.0159248 -0.0077072 0.004 300 0 
16 1 1 -0.0210453 0.00169425 0.00830958 0 0 0 5.52785e-05 9.88243e-05 0.000106071 -0.000138346 2.47132e-05 -2.01706e-05 -0.00607457 0.00702353 -0.00468149 0.004 300 0 
303 1 1 0.0459489 0.00350422 0.00962653 0 0 0 1.42157e-05 5.00168e-05 3.06069e-05 -1.2329e-05 -3.72192e-05 2.63379e-05 -0.0197832 0.0041229 -0.0161937 0.004 300 0 
523 1 1 -0.0389796 0.00803067 0.00932883 0 0 0 4.33883e-05 2.47154e-05 0.000136559 1.35514e-05 0.000136192 -2.10216e-06 0.00662496 0.00183623 -0.00869407 0.004 300 0 
704 1 1 -0.0107978 0.00519213 0.00743899 0 0 0 7.7606e-05 8.21877e-06 7.72909e-05 -0.000128436 1.91217e-05 -3.98041e-05 -0.0141534 0.00426001 0.00355193 0.004 300 0 
454 1 1 0.00101186 0.00715923 0.00933993 0 0 0 6.07904e-05 -2.79555e-05 3.4712e-05 -3.81132e-05 -1.90237e-05 -7.70708e-05 -0.00424478 0.0115642 -0.00606119 0.004 300 0 
31 1 1 0.0102165 0.00547592 0.00832614 0 0 0 3.71664e-05 -2.47455e-05 -7.99865e-05 -3.71457e-05 -2.48833e-05 -1.47678e-05 -0.00478738 0.0183381 0.00151188 0.004 300 0 
135 1 1 0.0188888 0.00749177 0.00960775 0 0 0 0.000113832 2.79816e-05 -8.8604e-05 -0.000139688 -6.80697e-05 7.21956e-05 -0.0023809 0.0076533 0.0337919 0.004 300 0 
712 1 1 0.0281141 0.00743261 0.00998856 0 0 0 6.86215e-05 6.50096e-05 -1.46737e-05 -0.000144839 -3.9962e-05 0.000106505 0.00953996 -0.00916837 -0.00579374 0.004 300 0 
210 1 1 0.0394933 0.0081462 0.00989841 0 0 0 2.45562e-05 1.63622e-05 7.49097e-05 -2.61858e-05 4.42238e-06 7.60543e-05 0.000712364 0.0221586 0.0178441 0.004 300 0 
651 1 1 -0.0437987 0.0143398 0.00823576 0 0 0 2.88195e-05 2.55083e-05 6.22958e-05 -3.71101e-05 1.01851e-05 -1.66203e-05 0.00138595 -0.0112886 0.00582343 0.004 300 0 
621 1 1 0.0437183 0.0147845 0.00900755 0 0 0 -5.0633e-07 4.76719e-06 2.05406e-05 -3.53433e-05 1.92418e-05 4.85321e-05 -0.00797163 0.00156903 -0.00548218 0.004 300 0 
726 1 1 -0.0257655 0.0199971 0.00692844 0 0 0 2.76079e-05 3.91646e-05 6.32764e-05 -0.000194319 1.08744e-05 -9.95767e-05 0.0138176 -0.00590248 -0.000143858 0.004 300 0 
230 1 1 -0.00847439 0.0245945 0.00973834 0 0 0 7.35013e-05 -5.33894e-05 7.27492e-05 -0.000152549 0.000245817 -0.000209857 0.000727638 0.00794032 -0.00932834 0.004 300 0 
320 1 1 -0.00171236 0.0204047 0.00979434 0 0 0 7.32347e-05 -6.84968e-05 3.2048e-05 -0.000201536 9.80248e-05 -0.000158905 0.00462786 0.00116355 0.00549277 0.004 300 0 
7 1 1 0.0129214 0.0224301 0.00918538 0 0 0 -1.04368e-05 1.86619e-05 -1.24816e-05 -0.000233451 0.000106286 -4.08145e-05 0.0152194 0.0086242 0.0129658 0.004 300 0 
83 1 1 0.0214166 0.023965 0.00888427 0 0 0 -3.40319e-05 6.77329e-05 1.2222e-05 -8.66864e-05 5.07211e-05 6.60875e-06 0.00942012 0.0148642 0.00857374 0.004 300 0 
747 1 1 -0.033732 0.0313834 0.0097408 0 0 0 -1.70179e-05 4.88297e-05 9.52438e-05 -6.37373e-06 2.56617e-05 -2.49324e-05 0.00567698 -0.0392477 0.0084927 0.004 300 0 
51 1 1 -0.022619 0.0329654 0.00703468 0 0 0 -5.22269e-05 -2.55881e-05 6.89775e-05 -8.32883e-05 -9.63874e-05 -5.91272e-05 -0.00927182 0.00809201 0.0170329 0.004 300 0 
116 1 1 -0.00940715 0.03912 0.0080985 0 0 0 5.19258e-05 -1.02868e-06 6.97314e-05 -8.933e-05 0.000204959 -0.000166658 -0.001089 0.00141089 -0.00166178 0.004 300 0 
205 1 1 -0.00056036 -0.0460777 0.0110171 0 0 0 3.97034e-05 -6.55135e-06 4.73957e-05 -7.84385e-05 5.09954e-05 4.10307e-05 0.00776637 0.00987442 -0.00542903 0.004 300 0 
836 1 1 0.00737991 -0.0454689 0.0106608 0 0 0 4.64736e-05 -2.2085e-05 2.09716e-06 -1.7875e-05 4.87253e-05 -2.96612e-06 0.000170723 0.0127135 -0.0073768 0.004 300 0 
486 1 1 -0.0156916 -0.0402432 0.0103352 0 0 0 -5.74492e-06 4.17173e-05 3.77293e-05 -0.000157034 4.02058e-05 1.75261e-05 -0.0147535 -0.00316141 -0.00753459 0.004 300 0 
311 1 1 -0.00836794 -0.0439885 0.0106791 0 0 0 6.06869e-05 9.24741e-06 -3.17471e-06 -9.89505e-05 7.61936e-05 -3.44442e-05 -0.00515821 0.0131333 -0.00975782 0.004 300 0 
447 1 1 0.018055 -0.0423881 0.0118324 0 0 0 4.80512e-05 -1.28831e-05 -3.96341e-06 6.25425e-06 7.56776e-05 5.79784e-06 0.0145509 -0.030058 -0.00658278 0.004 300 0 
538 1 1 -0.0295742 -0.0353511 0.0149849 0 0 0 -3.45691e-05 4.39453e-05 4.98532e-05 -8.31883e-06 5.43483e-05 -1.7913e-05 0.0095259 0.000174988 0.00685978 0.004 300 0 
279 1 1 0.0111551 -0.0385417 0.0114153 0 0 0 6.36312e-05 -3.91827e-05 -1.76451e-05 -7.9195e-06 6.56841e-05 5.56843e-06 0.00813603 0.0107922 0.00891232 0.004 300 0 
110 1 1 0.0250463 -0.0386627 0.0117245 0 0 0 8.64677e-05 5.39917e-05 2.45368e-05 -2.90584e-05 6.0982e-05 4.1979e-06 -0.0153261 0.0286453 0.0164099 0.004 300 0 
188 1 1 -0.0179038 -0.0321011 0.0101567 0 0 0 -5.11989e-05 3.09756e-05 -6.3718e-06 -7.74759e-05 0.000111901 2.19347e-05 -0.00570947 -0.00221596 0.00535868 0.004 300 0 
810 1 1 -0.01026 -0.0344511 0.0102037 0 0 0 -2.97305e-06 1.3755e-05 -1.40405e-05 -0.000144021 5.7682e-05 4.68838e-05 0.000503985 0.00376904 0.00606732 0.004 300 0 
412 1 1 -0.00316736 -0.0328808 0.0133525 0 0 0 2.68219e-05 -1.50511e-05 -5.84858e-05 -0.000145414 4.46013e-06 3.27883e-05 0.00159495 0.00627819 -0.00426829 0.004 300 0 
545 1 1 0.00452069 -0.0343087 0.012194 0 0 0 5.3944e-05 -6.20983e-05 -2.03174e-05 -9.35808e-05 -7.93309e-06 -2.04864e-05 0.0064539 -0.0120787 -0.00572946 0.004 300 0 
100 1 1 0.0115066 -0.0305929 0.0117079 0 0 0 7.8018e-05 -6.88358e-05 -6.66812e-07 -0.000101542 0.000111419 -1.19424e-05 -0.00812407 0.00542634 -0.00250519 0.004 300 0 
556 1 1 0.0183667 -0.0344774 0.0109252 0 0 0 6.75944e-05 -2.19011e-05 5.11358e-05 -2.18321e-05 0.000111425 -7.84596e-05 0.00158175 -0.00912306 0.0065462 0.004 300 0 
32 1 1 0.0311347 -0.0339587 0.0134833 0 0 0 7.73136e-05 4.44901e-05 3.99739e-06 -2.29997e-05 7.56575e-05 -3.82718e-05 0.0220524 -0.0120093 -0.0161918 0.004 300 0 
5 1 1 -0.0386749 -0.0250104 0.0114407 0 0 0 -5.62089e-06 5.13414e-05 2.79147e-05 -4.83159e-05 2.56896e-05 -7.64585e-05 -0.00628748 0.00361753 0.00601314 0.004 300 0 
415 1 1 -0.0253876 -0.0293587 0.0104087 0 0 0 -3.71694e-05 4.10898e-05 2.06481e-05 -5.48911e-05 0.000105482 -1.46217e-05 -0.00756197 0.00101166 -0.0184122 0.004 300 0 
446 1 1 -0.00968779 -0.028048 0.0148342 0 0 0 -2.66217e-05 5.6563e-06 -3.98072e-05 -0.00012205 3.52314e-05 7.01701e-05 0.00310796 -0.000272985 -0.0112837 0.004 300 0 
814 1 1 0.0190786 -0.0262841 0.0103734 0 0 0 9.35123e-05 -2.91504e-05 2.63775e-05 -2.18683e-05 0.000117825 -3.65878e-05 0.0183134 0.0210441 -0.00676281 0.004 300 0 
24 1 1 0.028965 -0.0255383 0.0115705 0 0 0 0.000119179 2.23374e-05 4.43221e-05 1.76223e-05 8.36184e-05 -8.08898e-05 -0.00992553 0.00761988 -0.00886006 0.004 300 0 
266 1 1 -0.0293339 -0.022428 0.0104519 0 0 0 5.10425e-06 5.46573e-05 9.20422e-05 -9.43229e-05 0.00010133 -2.32296e-05 -0.00471816 0.00469407 -0.00120558 0.004 300 0 
487 1 1 -0.0208109 -0.0214236 0.0102406 0 0 0 -3.85393e-05 0.000122383 3.99118e-05 2.14079e-05 6.0679e-05 -6.66125e-05 -0.0136874 -0.0036526 -0.00612374 0.004 300 0 
655 1 1 0.00191992 -0.0211548 0.0115805 0 0 0 -1.52835e-05 -0.000105313 3.9969e-06 -0.00011803 -5.76379e-05 3.22609e-05 0.00486352 0.0166089 -0.00338847 0.004 300 0 
243 1 1 0.0112838 -0.022713 0.010893 0 0 0 0.00010489 -9.72303e-05 -4.61785e-05 -9.97678e-05 0.000119868 -3.81953e-05 0.00533572 0.00914296 0.000277791 0.004 300 0 
528 1 1 0.0400467 -0.0227769 0.0122688 0 0 0 2.97742e-05 1.20941e-05 9.23184e-06 -2.66397e-05 5.63024e-05 3.6139e-05 0.0109812 -0.026297 0.00494861 0.004 300 0 