ITEM: TIMESTEP
41600
ITEM: NUMBER OF ATOMS
891
ITEM: BOX BOUNDS mm mm mm
-0.05 0.05
-0.05 0.05
0 0.15
ITEM: ATOMS id type type x y z ix iy iz vx vy vz fx fy fz omegax omegay omegaz radius f_Temp[0] f_heatFlux[0] 
199 1 1 -0.00444377 -0.0458158 0.00397435 0 0 0 -2.2723e-07 2.72666e-07 2.76029e-07 -1.17931e-07 6.08838e-08 9.21346e-08 1.53637e-05 -3.15153e-05 8.22713e-05 0.004 503.746 1.73426 
873 1 1 -0.0201484 -0.0414789 0.0039016 0 0 0 -1.42087e-08 1.42974e-07 2.13304e-07 -8.36714e-08 -1.98908e-08 -2.94335e-08 2.61624e-05 -1.27547e-05 6.97901e-06 0.004 421.463 3.00082 
485 1 1 -0.0126796 -0.0442534 0.00397264 0 0 0 -1.61416e-07 2.77312e-07 2.52774e-07 -1.12582e-07 4.88804e-08 5.27222e-08 -8.26687e-06 -6.93541e-05 7.02198e-05 0.004 456.289 2.81927 
850 1 1 0.00335642 -0.0441759 0.00394115 0 0 0 -8.58459e-08 3.59919e-07 3.26494e-07 -3.76814e-08 1.3728e-07 1.94177e-07 -5.48425e-05 2.11243e-05 -0.000146982 0.004 554.116 0.141724 
186 1 1 0.0114401 -0.0445988 0.00392827 0 0 0 -1.11322e-07 1.6908e-07 2.16017e-07 -3.65892e-08 7.25883e-08 8.36624e-08 -8.12227e-06 1.77309e-06 1.23611e-05 0.004 628.449 -2.0075 
560 1 1 0.018969 -0.0420006 0.00394676 0 0 0 -1.69334e-07 1.48634e-07 1.77602e-07 -6.77432e-08 6.20053e-08 8.04244e-08 -3.84768e-06 5.85341e-06 -6.62259e-06 0.004 659.922 -2.60718 
102 1 1 -0.0147501 -0.0357331 0.00386311 0 0 0 -1.25554e-07 4.73988e-07 5.96462e-07 -1.08005e-07 -2.99752e-08 1.33559e-07 -3.33136e-05 -2.31465e-05 5.45498e-05 0.004 442.805 2.48059 
88 1 1 -0.00730761 -0.0383837 0.00392727 0 0 0 -1.21079e-07 4.11222e-07 4.50136e-07 -6.17049e-08 4.86373e-08 1.20456e-07 -3.73135e-05 2.79304e-05 -7.60599e-05 0.004 485.831 1.81965 
776 1 1 0.00520385 -0.0354368 0.00395023 0 0 0 -2.36546e-07 6.64658e-07 5.10302e-07 -5.79755e-08 2.31577e-07 3.07025e-07 -0.000129534 2.32601e-05 -4.63083e-05 0.004 592.08 -0.976295 
410 1 1 0.0130236 -0.0368131 0.00392572 0 0 0 -2.94509e-07 3.33229e-07 3.97096e-07 -9.32601e-08 1.15297e-07 1.99277e-07 -2.1128e-05 -2.08025e-05 -2.53292e-06 0.004 636.251 -2.06321 
282 1 1 0.025876 -0.0381319 0.00388527 0 0 0 -1.80125e-07 9.58259e-08 1.39358e-07 -7.23853e-08 7.72101e-08 9.27004e-08 5.73341e-06 -2.8753e-05 1.82166e-05 0.004 699.531 -3.08239 
682 1 1 -0.0302016 -0.0348779 0.00393465 0 0 0 -5.70324e-08 9.92757e-08 1.11976e-07 -4.66049e-08 2.51716e-08 1.09587e-08 1.11011e-05 -3.54388e-06 1.77265e-05 0.004 369.691 2.97267 
251 1 1 -0.0224189 -0.0338476 0.00392332 0 0 0 -1.15117e-07 2.55507e-07 3.86762e-07 -1.00472e-07 -5.46398e-09 5.71496e-08 -1.09306e-05 -6.46772e-05 2.47438e-05 0.004 404.453 2.91194 
770 1 1 -0.00204754 -0.0321408 0.00393965 0 0 0 -2.91897e-07 6.83541e-07 4.92449e-07 -1.62609e-07 1.19467e-07 2.45365e-07 -8.92078e-05 -1.68899e-05 4.55157e-05 0.004 545.143 0.149461 
883 1 1 0.018166 -0.0307536 0.00390023 0 0 0 -3.58947e-07 3.49898e-07 5.15868e-07 -1.6344e-07 1.93884e-07 2.87943e-07 -6.00574e-05 -8.0458e-05 -1.21316e-05 0.004 672.308 -2.63 
838 1 1 0.0320336 -0.033109 0.00396073 0 0 0 -2.16689e-07 9.01452e-08 2.64667e-07 -1.10893e-07 6.28731e-08 1.75352e-07 3.14495e-05 -5.96567e-06 1.27684e-05 0.004 726.784 -3.13435 
617 1 1 -0.0372521 -0.0271215 0.00391646 0 0 0 -7.48435e-08 9.18037e-08 2.96352e-08 -7.04275e-08 4.65805e-09 -1.71399e-08 -1.84752e-05 -7.12244e-06 2.09457e-05 0.004 341.764 2.6787 
824 1 1 -0.0292998 -0.0270298 0.00392984 0 0 0 -2.27139e-07 1.8486e-07 2.60408e-07 -1.03408e-07 5.72401e-08 8.60027e-08 -1.82851e-05 -7.55231e-05 1.17518e-05 0.004 357.896 2.84891 
571 1 1 -0.0202615 -0.0262215 0.00393285 0 0 0 -3.13469e-07 4.52867e-07 5.9356e-07 -1.20371e-07 -8.37048e-09 1.60304e-07 -3.03485e-05 -7.93212e-05 5.7167e-05 0.004 400.2 2.83361 
861 1 1 -0.00959294 -0.0297304 0.00389698 0 0 0 -3.23834e-07 6.37094e-07 7.13644e-07 -9.07402e-08 -8.1963e-08 2.79813e-07 -5.33941e-05 -3.08894e-05 -1.3256e-05 0.004 476.565 1.69151 
434 1 1 0.0103455 -0.0293807 0.00393742 0 0 0 -2.79069e-07 5.18728e-07 4.6727e-07 -1.2609e-07 1.73529e-07 2.49821e-07 -2.06733e-05 2.53766e-06 -3.05703e-05 0.004 629.059 -1.79484 
103 1 1 0.0311547 -0.0252347 0.00394363 0 0 0 -2.32413e-07 1.50588e-07 3.9362e-07 -1.2173e-07 8.24969e-08 2.86736e-07 -1.62619e-05 1.80705e-05 -2.20846e-05 0.004 736.376 -2.95221 
769 1 1 -0.041344 -0.0202818 0.0039823 0 0 0 -1.07846e-07 4.61566e-08 -5.41828e-08 -1.11992e-07 1.34095e-08 -1.10765e-07 -1.30073e-05 1.16921e-06 1.5439e-05 0.004 331.155 2.42782 
94 1 1 -0.0333714 -0.0202163 0.0039437 0 0 0 -2.25758e-07 1.69793e-07 5.73061e-08 -1.80567e-07 1.17891e-08 -1.49524e-08 -8.38134e-06 -4.03445e-05 9.71863e-06 0.004 344.448 2.60596 
40 1 1 -0.025401 -0.0201464 0.00391761 0 0 0 -3.22142e-07 3.01408e-07 3.38668e-07 -1.98275e-07 1.01581e-07 1.25613e-07 -3.39421e-05 -7.90686e-05 2.01754e-06 0.004 368.655 2.74875 
19 1 1 -0.00865072 -0.0218804 0.00393966 0 0 0 -3.10711e-07 5.8334e-07 6.01026e-07 1.32788e-07 -1.19629e-07 2.53492e-07 -6.17743e-05 -8.55675e-05 -6.57511e-06 0.004 477.91 1.58566 
442 1 1 -0.000436967 -0.02185 0.00393584 0 0 0 -3.11685e-07 5.59644e-07 7.04344e-07 9.48411e-08 -2.70751e-07 4.94042e-07 -9.73767e-05 -3.65194e-05 -1.17405e-05 0.004 552.239 -0.0302577 
259 1 1 0.00753191 -0.0220001 0.00392511 0 0 0 -1.83168e-07 5.9646e-07 4.74226e-07 -1.16247e-07 1.0749e-08 4.26775e-07 -6.45664e-05 3.16656e-05 9.45637e-06 0.004 616.826 -1.48035 
512 1 1 0.0153883 -0.0232356 0.00397834 0 0 0 -2.55279e-07 3.91412e-07 3.8789e-07 -1.16482e-07 1.19338e-07 2.54618e-07 -4.44866e-05 -5.01628e-05 -2.60026e-05 0.004 669.492 -2.41686 
470 1 1 0.0232616 -0.0243589 0.00390815 0 0 0 -3.107e-07 2.86693e-07 6.00261e-07 -1.34672e-07 1.71145e-07 3.76914e-07 -5.70535e-05 -2.99301e-05 -5.80748e-06 0.004 707.581 -2.92327 
451 1 1 0.0390293 -0.0244875 0.00392048 0 0 0 -1.40642e-07 2.14986e-08 9.4619e-08 -8.70675e-08 -1.56457e-08 7.62646e-08 -4.7925e-06 2.8969e-07 -9.19924e-06 0.004 756.696 -2.67738 
531 1 1 -0.0164596 -0.0192004 0.00396125 0 0 0 -4.00046e-07 4.75026e-07 3.94984e-07 -3.1197e-08 -1.21937e-07 1.92103e-07 -0.000116952 -8.03176e-05 -2.83246e-05 0.004 411.427 2.77435 
229 1 1 0.0202059 -0.0169136 0.00386875 0 0 0 -3.65795e-07 3.16226e-07 7.27355e-07 -2.09728e-07 1.1893e-07 5.02481e-07 -1.54549e-05 -3.10056e-05 2.83828e-05 0.004 699.171 -2.64054 
734 1 1 0.0280521 -0.017942 0.00394397 0 0 0 -2.0995e-07 2.63303e-07 4.41961e-07 -1.19098e-07 8.73083e-08 2.99273e-07 -2.59547e-05 3.82324e-05 -2.3676e-07 0.004 736.79 -2.79078 
635 1 1 0.0425981 -0.0174495 0.00392191 0 0 0 -1.04764e-07 1.16902e-08 8.53836e-08 -1.22722e-07 2.09207e-09 1.09226e-07 2.65388e-06 -2.73019e-05 2.30635e-06 0.004 774.549 -2.15129 
87 1 1 -0.0448224 -0.0104639 0.0039142 0 0 0 -8.41501e-08 -8.14257e-09 -4.13485e-08 -9.82669e-08 -6.22474e-08 -7.30614e-08 1.53058e-05 -5.02714e-06 -1.61515e-05 0.004 318.625 1.84473 
406 1 1 -0.0373951 -0.013391 0.00396016 0 0 0 -2.65109e-07 1.02543e-07 2.09733e-08 -3.21154e-07 1.10414e-08 -3.11425e-08 5.96653e-06 -5.77388e-05 2.2714e-05 0.004 328.759 2.22942 
224 1 1 -0.0230581 -0.0126019 0.00387961 0 0 0 -1.87574e-07 3.17248e-07 3.74306e-07 -2.16286e-07 1.17406e-07 2.34549e-07 -6.41486e-05 -6.75657e-05 -2.34298e-05 0.004 380.868 2.55957 
751 1 1 -0.0102996 -0.0141545 0.00396945 0 0 0 -2.35447e-07 4.79495e-07 5.11727e-07 2.63206e-08 -1.14135e-07 2.60478e-07 -2.82188e-06 -2.78553e-05 -8.69625e-07 0.004 456.981 1.86377 
622 1 1 -0.00273388 -0.0117409 0.00388524 0 0 0 -2.80965e-07 5.11423e-07 8.73889e-07 1.20445e-07 2.95799e-08 3.40093e-07 -9.59418e-05 -8.18773e-05 -1.37983e-05 0.004 516.969 0.648539 
128 1 1 0.00951067 -0.010685 0.00388458 0 0 0 -4.10088e-07 4.50959e-07 9.43926e-07 -1.36927e-07 1.70708e-07 4.99301e-07 -7.49507e-05 -2.11315e-05 -5.85996e-05 0.004 638.772 -1.77833 
68 1 1 0.0262808 -0.010211 0.00395438 0 0 0 -3.49698e-07 2.75275e-07 4.9866e-07 -1.64943e-07 2.80886e-08 4.00885e-07 -2.95514e-05 -1.8041e-05 -9.36744e-06 0.004 741.545 -2.66881 
791 1 1 0.0340945 -0.0118532 0.00392801 0 0 0 -2.25039e-07 1.60747e-07 2.3802e-07 -1.81948e-07 -1.40929e-07 2.59146e-07 6.28465e-07 -3.24677e-05 6.44404e-05 0.004 764.502 -2.43832 
354 1 1 -0.0380748 -0.00550396 0.00392042 0 0 0 -1.60885e-07 1.13371e-07 2.02052e-08 -1.8276e-07 1.606e-08 9.99527e-08 -8.35839e-06 -1.42512e-05 -3.09234e-05 0.004 325.683 2.02201 
725 1 1 -0.0304901 -0.00800531 0.0039252 0 0 0 -2.96554e-07 1.50351e-07 1.01299e-07 -4.16345e-07 6.18936e-09 1.4482e-07 -1.20657e-05 -6.84645e-05 -5.27934e-06 0.004 340.078 2.34515 
353 1 1 -0.0161288 -0.00879809 0.00391143 0 0 0 -1.35223e-07 3.33207e-07 5.30781e-07 -2.90169e-08 -5.28073e-08 3.13872e-07 -1.17721e-05 -7.27849e-06 1.1153e-05 0.004 418.716 2.53768 
391 1 1 -0.00857661 -0.00639748 0.00391357 0 0 0 -1.31066e-07 3.5129e-07 7.18334e-07 -4.49125e-08 -8.11217e-09 3.44132e-07 4.87229e-05 1.24847e-06 -1.07155e-05 0.004 472.593 1.5158 
683 1 1 0.0173533 -0.00945629 0.00390986 0 0 0 -3.62578e-07 2.44384e-07 6.75944e-07 -1.84677e-07 1.61752e-07 3.70938e-07 -7.04764e-05 -1.75036e-05 -1.99608e-05 0.004 690.241 -2.51003 
690 1 1 0.0385537 -0.00520142 0.00390022 0 0 0 -1.59219e-07 -1.6196e-08 2.97666e-07 -1.12507e-07 -2.50036e-07 2.54386e-07 1.92496e-05 -2.48348e-05 -1.27348e-07 0.004 776.98 -1.95794 
10 1 1 0.0449635 -0.00990888 0.00397399 0 0 0 -5.28384e-08 1.36044e-08 8.2414e-08 1.31811e-08 1.95755e-08 2.41619e-08 -1.23482e-05 1.69291e-05 -2.33899e-06 0.004 782.204 -1.7968 
402 1 1 -0.046017 -0.00264172 0.00392182 0 0 0 -4.97541e-08 5.20435e-08 -2.65333e-08 -4.49808e-08 -3.77892e-08 4.22311e-08 -1.55004e-05 -6.00068e-06 1.13837e-05 0.004 318.545 1.77488 
761 1 1 -0.0294744 -0.000168336 0.00392563 0 0 0 -1.41931e-07 1.45355e-07 1.53222e-07 -8.93588e-08 3.82193e-08 3.54357e-07 -2.15972e-05 -2.40742e-05 -1.59561e-05 0.004 351.124 2.38073 
293 1 1 -0.0229324 -0.00466873 0.0039595 0 0 0 -1.50713e-07 1.95915e-07 3.1259e-07 -4.66284e-08 5.81157e-08 3.3726e-07 2.54044e-05 -4.66364e-05 1.39912e-05 0.004 379.344 2.51285 
384 1 1 -0.0147024 -0.000915913 0.0039815 0 0 0 4.63709e-05 0.000428661 -7.30698e-07 -1.99113e-09 -1.15104e-08 5.56427e-07 -0.107408 0.0116185 0.107886 0.004 305.949 0 
378 1 1 0.0013061 -0.00490406 0.00392906 0 0 0 -2.36243e-07 4.36626e-07 6.87989e-07 -4.0903e-08 1.31904e-07 2.93184e-07 -9.81859e-05 -9.85492e-05 2.89068e-05 0.004 555.056 -0.12116 
390 1 1 0.0103707 -0.00276531 0.00396886 0 0 0 -2.65539e-07 2.80901e-07 5.78725e-07 -2.87424e-07 2.13444e-07 3.3238e-07 -4.89829e-05 -6.98726e-05 7.1969e-06 0.004 651.278 -2.08994 
411 1 1 0.0223603 -0.00329286 0.00397625 0 0 0 -5.00207e-07 2.3663e-07 6.30874e-07 -2.0697e-07 -3.13127e-08 4.08851e-07 3.34791e-05 -8.33097e-05 6.32476e-05 0.004 723.696 -2.75197 
342 1 1 0.0307348 -0.00361665 0.00397529 0 0 0 -1.09881e-07 6.98605e-08 2.88015e-07 2.15227e-07 -2.29149e-07 1.34569e-07 7.57774e-06 4.0405e-06 -3.40959e-05 0.004 764.992 -2.3263 
262 1 1 0.0460221 -0.00206505 0.00395833 0 0 0 -1.15046e-07 -5.11975e-08 9.06364e-08 -6.83738e-08 -9.08765e-08 4.73208e-08 2.98873e-05 -9.4366e-06 3.12323e-05 0.004 782.787 -1.75906 
261 1 1 -0.0398214 0.00224601 0.00393476 0 0 0 -8.51599e-08 1.09452e-07 -3.26354e-08 -4.61378e-08 -5.41626e-10 1.48338e-07 -9.68715e-06 -1.21433e-05 5.70269e-06 0.004 325.803 1.9696 
666 1 1 -0.00454676 0.000451426 0.00395604 0 0 0 -1.33157e-07 1.98475e-07 6.59178e-07 -6.73405e-08 2.49443e-08 3.45161e-07 -1.16472e-05 6.63546e-05 -1.10224e-05 0.004 507.71 0.869842 
815 1 1 0.00434368 0.0024356 0.00392711 0 0 0 -5.55234e-08 5.25535e-07 4.88936e-07 -2.08602e-07 1.9479e-07 2.87501e-07 -4.01121e-05 -2.28739e-05 -9.19359e-05 0.004 595.162 -0.956049 
306 1 1 0.01637 0.00247666 0.00395809 0 0 0 -4.17362e-07 4.72453e-07 6.51012e-07 -7.51636e-08 1.54962e-07 3.49906e-07 -0.000127399 -7.82777e-05 4.58531e-05 0.004 694.371 -2.68621 
178 1 1 0.0241042 0.00444176 0.00386114 0 0 0 -4.45166e-07 2.03796e-07 6.92097e-07 -7.49924e-08 -1.27878e-07 4.90731e-07 -6.75385e-05 -8.23969e-05 -8.07466e-05 0.004 727.783 -2.67575 
862 1 1 0.0320656 0.00423367 0.00393097 0 0 0 -2.77921e-07 9.15026e-08 5.50024e-07 3.15556e-08 -1.92752e-07 3.81138e-07 1.31212e-05 2.1894e-05 4.2452e-05 0.004 758.878 -2.36644 
661 1 1 0.0398756 0.0029147 0.0039468 0 0 0 -1.8435e-07 -4.3482e-08 2.5795e-07 -9.14694e-08 -3.02117e-08 1.07537e-07 4.82117e-05 -8.79324e-07 -3.27036e-05 0.004 776.068 -1.97373 
677 1 1 -0.0453782 0.0078854 0.00393641 0 0 0 -3.57559e-08 6.2643e-08 -4.42686e-08 -4.16942e-08 -3.70626e-08 3.48578e-08 -7.57659e-06 2.88355e-06 -8.34483e-09 0.004 319.095 1.81622 
12 1 1 -0.0333161 0.0067196 0.00393696 0 0 0 -9.42821e-08 1.30614e-07 -1.25485e-08 -4.59359e-08 6.86144e-08 2.39977e-07 -2.21906e-05 -1.43595e-05 1.21914e-06 0.004 341.624 2.2817 
420 1 1 -0.0254 0.00664838 0.00392687 0 0 0 -9.34072e-08 1.34414e-07 1.30269e-07 -5.09618e-08 1.20297e-07 3.24861e-07 -2.55136e-05 -2.54517e-05 3.3338e-06 0.004 369.096 2.46276 
654 1 1 -0.0175134 0.00720947 0.00387212 0 0 0 -9.54924e-08 1.51807e-07 3.73925e-07 -6.88093e-08 1.68763e-07 4.95405e-07 -4.64203e-05 -4.48824e-05 -2.03651e-06 0.004 409.274 2.31065 
145 1 1 -0.00454407 0.00836537 0.00386311 0 0 0 -6.97712e-08 1.44135e-07 6.99019e-07 -1.61915e-07 9.18843e-08 3.92044e-07 -1.55607e-05 -1.68222e-05 -4.26758e-05 0.004 506.75 0.9004 
624 1 1 0.0451449 0.00890653 0.00390657 0 0 0 -1.90592e-07 -6.72926e-08 1.89696e-07 -1.30428e-07 -1.28592e-07 1.51583e-07 -1.17986e-06 -3.29213e-05 4.71536e-06 0.004 780.158 -1.87915 
613 1 1 -0.0372991 0.0135339 0.00384344 0 0 0 -3.38887e-08 1.01221e-07 -4.77738e-08 -8.97095e-08 2.66798e-09 3.94537e-08 -3.15955e-06 -1.68922e-06 -9.05119e-06 0.004 331.353 2.20454 
265 1 1 -0.0293062 0.0135429 0.00396371 0 0 0 -7.81173e-08 8.0389e-08 2.84275e-09 -3.87902e-08 1.72986e-07 7.37289e-08 1.94122e-06 -1.52014e-05 -2.87572e-06 0.004 355.493 2.58881 
273 1 1 -0.0213694 0.0141274 0.00392939 0 0 0 -7.99664e-08 8.6726e-08 1.06358e-07 -1.07534e-07 2.17773e-07 1.45862e-07 -8.77349e-06 -1.21066e-05 7.73704e-06 0.004 382.912 2.63312 
492 1 1 -0.01145 0.0123712 0.00398079 0 0 0 -2.27055e-07 1.89778e-07 3.4496e-07 -9.98135e-08 1.22094e-07 3.18918e-07 -4.51796e-05 -5.10752e-05 5.35858e-05 0.004 456.442 1.92573 
234 1 1 0.00585285 0.010393 0.0039289 0 0 0 -2.2077e-07 4.13921e-07 6.23159e-07 -1.44178e-07 5.79168e-08 2.66684e-07 -0.000152097 3.05599e-06 -0.000122643 0.004 591.604 -0.812133 
160 1 1 0.0142843 0.0106356 0.00390957 0 0 0 -3.53967e-07 3.80122e-07 7.12002e-07 -9.04904e-08 3.89463e-08 2.82929e-07 -0.000109691 -3.78948e-05 -1.72905e-06 0.004 667.729 -2.16276 
484 1 1 0.0220893 0.0120738 0.00390119 0 0 0 -2.36656e-07 2.26017e-07 4.81506e-07 -1.62978e-08 6.49264e-08 3.15919e-07 -2.13151e-05 9.52067e-06 -3.94862e-06 0.004 714.784 -2.62719 
743 1 1 0.0300184 0.0126216 0.00398127 0 0 0 -2.1722e-07 -3.19618e-07 1.39196e-07 -6.50213e-08 3.91713e-07 1.47895e-07 8.21542e-05 1.07261e-05 -0.000114352 0.004 743.673 -2.59245 
514 1 1 0.0379536 0.0130186 0.00386905 0 0 0 -2.27423e-07 -1.99272e-07 3.05213e-07 -1.56181e-07 -2.5297e-09 2.33939e-07 5.28298e-05 -4.81322e-05 0.000127778 0.004 766.3 -2.27696 
530 1 1 -0.0159002 0.0198648 0.00392796 0 0 0 -1.29502e-07 7.26685e-08 3.50765e-07 -6.38678e-08 1.67602e-07 7.02554e-08 -3.30748e-05 -8.31419e-05 -8.28908e-06 0.004 411.587 2.52385 
227 1 1 -0.00736503 0.0192084 0.00396595 0 0 0 -2.22498e-07 1.03284e-07 4.12003e-07 -3.28627e-08 5.61124e-08 1.832e-07 -1.10795e-05 -4.98287e-05 -8.47268e-05 0.004 489.216 1.37428 
392 1 1 -0.000498628 0.0151513 0.00394446 0 0 0 -1.58114e-07 2.29291e-07 5.36564e-07 -1.63759e-07 3.35716e-08 2.11998e-07 -3.22417e-05 5.98925e-05 0.000119075 0.004 539.199 0.287231 
493 1 1 0.00985839 0.0172531 0.00394647 0 0 0 -2.93925e-07 1.49434e-07 4.33354e-07 -7.80238e-08 7.49831e-09 1.91274e-07 3.79487e-05 -2.14427e-05 8.11576e-05 0.004 627.727 -1.49 
34 1 1 0.0176357 0.0187852 0.00394099 0 0 0 -2.64902e-07 2.3858e-07 4.71282e-07 -3.31179e-08 1.65642e-07 1.84555e-07 -3.42027e-05 -1.58215e-05 -3.62113e-05 0.004 679.754 -2.28834 
206 1 1 0.0255397 0.0192353 0.00396993 0 0 0 -1.81868e-07 5.10386e-08 3.12738e-07 -6.73036e-08 1.69628e-07 7.7192e-08 2.48796e-06 3.12973e-05 -1.24816e-06 0.004 722.614 -2.67408 
104 1 1 0.0334175 0.0199346 0.0038965 0 0 0 -2.57742e-07 -9.58425e-08 2.84559e-07 -1.20052e-07 -1.62574e-08 1.8332e-07 3.22434e-05 -5.51767e-05 -1.88166e-05 0.004 749.126 -2.6317 
809 1 1 -0.0412058 0.0204949 0.00395497 0 0 0 -4.24316e-09 6.71962e-08 -7.69775e-09 -6.11473e-08 -2.23195e-08 5.0737e-09 -6.44883e-07 -4.91701e-06 1.69585e-06 0.004 326.171 2.21161 
773 1 1 -0.0331523 0.0204531 0.00393522 0 0 0 -3.14157e-08 7.91791e-08 -8.14877e-09 -5.39252e-09 1.19212e-07 6.07173e-08 -1.96723e-06 -1.02006e-05 -8.93867e-06 0.004 347.154 2.70443 
792 1 1 0.00347677 0.0219735 0.00392105 0 0 0 -2.58866e-07 1.26569e-07 2.92432e-07 -5.09826e-08 -1.27619e-07 5.44462e-08 -2.95809e-05 -5.88461e-05 -9.69962e-05 0.004 577.973 -0.555327 
718 1 1 0.0413199 0.0203659 0.00392989 0 0 0 -1.45259e-07 -6.23855e-08 1.74416e-07 -8.30572e-08 -6.35071e-08 1.12889e-07 -3.24567e-06 7.32479e-06 -1.35937e-06 0.004 764.823 -2.43108 
101 1 1 -0.0371146 0.0272995 0.00390402 0 0 0 -1.05564e-08 9.66945e-08 -5.56011e-08 -5.78502e-08 4.17655e-08 -1.51856e-08 -2.36609e-05 4.95846e-06 5.77581e-06 0.004 339.606 2.62616 
246 1 1 -0.0290567 0.0272807 0.00398271 0 0 0 2.28012e-08 3.23769e-08 6.88726e-08 2.28846e-07 3.28547e-07 -5.66485e-08 -8.76666e-06 -2.49531e-05 -4.68367e-06 0.004 355.626 3.06378 
331 1 1 -0.0212281 0.0257798 0.00390018 0 0 0 1.21106e-08 -1.81261e-09 1.25145e-07 -1.6651e-08 2.95328e-07 -1.651e-07 9.08945e-06 2.92249e-05 -2.26372e-05 0.004 386.002 2.84917 
846 1 1 -0.0134708 0.0274168 0.0039748 0 0 0 -2.06769e-07 1.24492e-07 1.4447e-07 1.53792e-07 4.68796e-08 -1.07333e-08 -5.63112e-05 -5.60239e-05 4.8167e-05 0.004 430.352 2.28001 
348 1 1 -0.00329916 0.0260612 0.00393374 0 0 0 -9.78679e-08 9.87459e-08 2.67551e-07 8.50961e-08 -5.48794e-08 6.77424e-08 -1.6241e-05 4.42696e-05 8.07513e-05 0.004 524.657 0.59614 
786 1 1 0.00840353 0.0281551 0.00389684 0 0 0 -1.69274e-07 1.13832e-07 2.93063e-07 8.22133e-08 -1.22165e-07 1.4725e-07 -2.5484e-05 -3.07739e-05 7.33767e-05 0.004 613.194 -1.35052 
316 1 1 0.0162833 0.0272928 0.0039063 0 0 0 -1.5812e-07 1.36529e-07 2.95746e-07 9.35913e-08 7.65664e-08 1.98288e-07 -5.16121e-05 -4.32687e-06 -5.50685e-05 0.004 671.342 -2.42834 
495 1 1 0.0288861 0.0264618 0.00396716 0 0 0 -1.29768e-07 1.75472e-08 2.22259e-07 -1.35736e-09 2.83796e-08 1.65243e-07 2.30902e-06 3.55159e-06 -1.26304e-05 0.004 734.161 -2.87991 
863 1 1 0.0367263 0.0277633 0.00392936 0 0 0 -9.74826e-08 -3.24084e-08 1.04818e-07 -3.36553e-08 -4.15276e-08 8.76362e-08 1.49002e-06 -9.93317e-06 -3.83754e-06 0.004 754.86 -2.79724 
511 1 1 -0.00761835 0.0327132 0.00388553 0 0 0 -1.45711e-07 8.04252e-08 1.73014e-07 3.10985e-07 -1.13055e-07 1.10741e-07 -1.78052e-05 -3.57853e-05 -6.10963e-05 0.004 496.205 1.17838 
722 1 1 0.00164033 0.0322874 0.00396635 0 0 0 -1.63273e-07 5.82564e-08 1.62478e-07 1.41696e-07 -1.42032e-07 4.0167e-08 1.04427e-05 -2.79893e-05 -6.68029e-05 0.004 563.638 -0.288327 
2 1 1 0.0229311 0.031696 0.00396243 0 0 0 -1.20032e-07 7.33906e-08 2.09894e-07 1.4258e-09 1.32347e-07 1.44272e-07 -2.87881e-05 -2.24834e-05 -3.28043e-06 0.004 701.128 -2.95101 
254 1 1 0.0305662 0.0342922 0.0039815 0 0 0 0.000481608 -0.000706171 -3.53623e-15 -1.89245e-18 -2.95353e-18 0 0.176952 0.120681 -0.0211551 0.004 798.547 0 
257 1 1 -0.0296322 0.0352231 0.00395613 0 0 0 5.58825e-08 1.27157e-08 -1.51806e-08 2.42757e-07 3.02696e-07 -1.56434e-07 -6.28256e-06 1.17421e-05 1.18843e-05 0.004 360.093 3.27431 
582 1 1 -0.0157655 0.0356206 0.00393205 0 0 0 2.99702e-07 4.68558e-07 1.15245e-07 5.27382e-07 7.97968e-07 9.36175e-08 -0.000131062 6.40972e-05 0.000116686 0.004 407.059 3.22746 
255 1 1 -0.00267125 0.038932 0.00391147 0 0 0 -2.72826e-08 8.02124e-08 1.06528e-07 2.24911e-07 -9.24032e-08 8.4156e-09 -2.31912e-05 -3.41865e-06 2.30201e-05 0.004 526.601 0.566827 
887 1 1 0.00812084 0.0373183 0.00392889 0 0 0 -9.29717e-08 -8.21618e-09 1.71356e-07 5.81419e-08 -1.07677e-07 6.07638e-08 -1.22654e-05 -9.58579e-06 -6.32232e-06 0.004 626.143 -1.89028 
719 1 1 0.0157853 0.0351951 0.00398363 0 0 0 -2.07398e-08 6.55345e-08 8.72059e-08 3.46822e-08 6.25917e-08 5.79565e-09 -7.1539e-06 1.48662e-05 1.18074e-05 0.004 670.319 -2.66402 
21 1 1 0.0234243 0.0396338 0.00391497 0 0 0 -2.94125e-08 -5.82546e-09 6.24944e-08 3.09207e-08 6.04719e-09 2.11012e-08 -8.41483e-07 -4.59785e-06 -1.27121e-05 0.004 702.288 -3.14563 
325 1 1 -0.0222388 0.0402984 0.00393951 0 0 0 7.47655e-08 5.21029e-08 1.60436e-08 1.61399e-07 2.20817e-07 -2.41438e-08 -2.33195e-05 2.31356e-05 3.13529e-05 0.004 395.965 3.35971 
595 1 1 -0.014931 0.0435393 0.00398254 0 0 0 -3.94273e-08 1.49757e-07 -1.25057e-07 -8.57478e-08 2.5985e-07 -2.22573e-07 2.64997e-05 -8.4291e-06 -1.5101e-05 0.004 429.138 2.976 
568 1 1 0.0162912 0.0430934 0.00392629 0 0 0 -2.24807e-08 9.51823e-09 5.12818e-08 3.59861e-08 -4.50427e-11 3.27335e-08 -9.2828e-07 2.70625e-06 1.58497e-06 0.004 667.152 -2.65577 
387 1 1 -0.00719691 0.045487 0.00389932 0 0 0 -3.362e-08 3.96956e-08 1.94213e-09 7.90677e-08 -5.60855e-08 -4.80195e-09 -4.23219e-06 -8.2782e-06 -6.89362e-06 0.004 499.957 1.27128 
852 1 1 0.000758888 0.0460615 0.00397617 0 0 0 -4.08442e-08 3.06476e-08 2.30202e-08 5.85876e-08 -1.6036e-08 4.89955e-09 -6.32078e-06 -7.31924e-06 -1.38738e-05 0.004 553.99 -0.0958922 
157 1 1 0.00865318 0.0452492 0.00389824 0 0 0 -3.20231e-08 -3.16386e-08 7.49346e-08 3.75942e-08 -4.29657e-08 6.72355e-08 -2.29672e-07 -2.98331e-06 -1.86465e-06 0.004 618.23 -1.66688 
400 1 1 -0.024752 -0.0387964 0.00974418 0 0 0 2.24322e-08 2.12158e-07 3.43122e-07 -1.55406e-08 1.11416e-07 7.41407e-08 1.51796e-05 3.62213e-05 -3.80972e-05 0.004 390.968 3.25149 
606 1 1 -0.000653937 -0.0387266 0.00813891 0 0 0 -2.15206e-07 7.5026e-07 7.71187e-07 -1.21242e-07 2.15129e-07 3.82931e-07 2.27298e-05 -0.000106169 0.000133823 0.004 549.748 0.133146 
724 1 1 -0.0339144 -0.0311598 0.00984801 0 0 0 -9.99259e-09 2.60025e-07 1.77863e-07 -8.86588e-08 2.08475e-08 5.12103e-09 -2.93448e-05 -5.88748e-06 1.53626e-05 0.004 351.391 2.84385 
183 1 1 0.0251947 -0.0311656 0.00751474 0 0 0 -4.21502e-07 1.63348e-07 6.61934e-07 -1.64529e-07 1.3169e-07 4.09894e-07 6.55298e-05 1.4498e-06 -1.04673e-05 0.004 709.727 -3.02544 
544 1 1 -0.0140218 -0.0253028 0.00874964 0 0 0 -6.27876e-07 1.13318e-06 1.17909e-06 -1.94601e-07 -1.30583e-07 5.21561e-07 -1.8397e-05 -3.91532e-05 2.44777e-05 0.004 436.654 2.30057 
29 1 1 -0.00450628 -0.0263793 0.00900728 0 0 0 -6.81752e-07 1.20459e-06 1.47021e-06 -1.20088e-08 -3.08503e-07 5.72885e-07 -0.000148362 -9.04633e-05 1.90566e-05 0.004 506.296 1.03181 
248 1 1 0.00349901 -0.0278426 0.00763307 0 0 0 -4.46762e-07 8.6965e-07 1.2365e-06 -3.4913e-07 4.21537e-07 6.43473e-07 0.000193909 -5.46121e-06 -4.10391e-05 0.004 581.076 -0.734949 
79 1 1 0.035837 -0.0289489 0.00959646 0 0 0 -2.12641e-07 1.7424e-07 3.63983e-07 -1.1118e-07 1.01122e-07 2.90176e-07 -3.74469e-05 8.45391e-05 -3.16027e-05 0.004 744.796 -2.90816 
291 1 1 -0.00458871 -0.0173975 0.00909523 0 0 0 -4.7857e-07 8.77556e-07 1.21444e-06 -4.52656e-07 1.66429e-07 5.7782e-07 1.41418e-05 3.13243e-05 -2.40954e-06 0.004 513.986 0.732511 
891 1 1 0.00373489 -0.015528 0.00632508 0 0 0 -3.71284e-07 6.6587e-07 1.20996e-06 -1.83208e-07 6.38257e-08 7.32869e-07 9.35513e-05 4.57371e-05 4.09345e-05 0.004 580.819 -0.677037 
870 1 1 0.0138323 -0.0156364 0.00831016 0 0 0 -7.1681e-07 6.77747e-07 1.50792e-06 -4.16726e-07 2.35183e-07 7.9716e-07 -9.14395e-05 4.68372e-05 -3.27496e-05 0.004 658.95 -2.15993 
777 1 1 0.034969 -0.018778 0.00771 0 0 0 -7.12351e-08 2.226e-07 2.13472e-07 -6.50597e-08 -4.18343e-08 1.56537e-07 -2.12362e-06 3.64817e-05 -3.18908e-05 0.004 758.283 -2.63623 
837 1 1 -0.029449 -0.0146727 0.00803326 0 0 0 -4.62994e-07 3.60369e-07 1.90993e-07 -4.54985e-07 4.63656e-08 8.53577e-08 -1.51116e-05 -3.81042e-05 2.83899e-05 0.004 351.862 2.50319 
445 1 1 -0.0181359 -0.0138493 0.00995275 0 0 0 -4.95428e-07 1.02448e-06 1.30419e-06 -7.15726e-07 -1.97492e-07 8.01492e-07 -0.000122361 -0.000107237 8.55205e-05 0.004 406.489 2.39222 
783 1 1 0.00485899 -0.00860657 0.00993767 0 0 0 -5.97165e-07 9.37319e-07 1.81536e-06 -2.20684e-07 2.53634e-07 8.11443e-07 -4.72709e-05 -1.97169e-05 2.00307e-06 0.004 592.479 -0.89 
615 1 1 -0.0350999 -0.000758713 0.00955182 0 0 0 -2.8639e-07 3.45233e-07 7.03912e-08 -2.13452e-07 -3.81781e-08 4.12165e-07 -4.51723e-05 -4.79505e-05 2.08922e-05 0.004 332.769 2.08946 
476 1 1 -0.0459522 0.00262139 0.00988978 0 0 0 -6.45342e-08 1.43067e-07 -6.36022e-08 -1.21547e-07 -7.97579e-08 5.68731e-08 -6.78005e-06 1.2882e-05 -1.50562e-06 0.004 316.416 1.68984 
16 1 1 -0.0210456 0.00169438 0.00830926 0 0 0 -3.16898e-07 4.57676e-07 6.23223e-07 -4.98451e-08 1.5824e-07 7.15226e-07 -7.39931e-05 -6.13716e-05 3.5134e-06 0.004 387.408 2.42187 
303 1 1 0.0459492 0.00350463 0.00962656 0 0 0 -1.9201e-07 -8.38797e-08 3.82157e-07 -2.03022e-07 -1.73599e-07 2.62203e-07 -7.58917e-06 8.39746e-05 1.40139e-05 0.004 781.447 -1.80535 
523 1 1 -0.0389797 0.0080308 0.00932861 0 0 0 -1.58842e-07 3.17475e-07 -1.18283e-07 -1.04112e-07 -7.1464e-09 2.17928e-07 -3.83604e-05 -1.33298e-05 -1.14414e-05 0.004 326.549 2.00345 
704 1 1 -0.010798 0.00519222 0.00743859 0 0 0 -3.00299e-07 4.19222e-07 1.08222e-06 -1.22935e-07 1.51065e-07 7.65266e-07 -8.98887e-05 -7.63441e-05 9.97063e-07 0.004 454.643 1.76168 
454 1 1 0.00101181 0.00715931 0.00933955 0 0 0 -4.24988e-07 3.23475e-07 1.22277e-06 -1.46025e-07 2.98861e-07 6.32389e-07 0.000176428 -5.40374e-05 0.000207152 0.004 553.963 -0.0784306 
31 1 1 0.0102165 0.0054759 0.00832589 0 0 0 -6.60378e-07 7.79717e-07 1.5466e-06 -1.89343e-07 2.37404e-07 6.45058e-07 -6.08171e-05 -0.000145721 5.90954e-05 0.004 631.878 -1.60441 
135 1 1 0.0188886 0.00749169 0.00960783 0 0 0 -9.60756e-07 6.56139e-07 1.10588e-06 -4.4125e-07 6.92577e-08 6.48858e-07 1.88429e-05 -0.000171721 -7.95345e-05 0.004 706.078 -2.73028 
712 1 1 0.0281139 0.00743267 0.00998854 0 0 0 -8.0818e-07 2.53377e-08 1.26196e-06 -4.3166e-07 -4.09696e-07 8.82237e-07 8.27738e-05 -6.55263e-05 -4.04311e-06 0.004 741.431 -2.59277 
210 1 1 0.0394934 0.00814607 0.00989879 0 0 0 -4.59e-07 -6.32477e-08 5.79403e-07 -3.87943e-07 -2.10635e-07 4.46476e-07 -5.13843e-05 -9.61681e-05 -1.92818e-05 0.004 773.959 -2.05543 
651 1 1 -0.0437987 0.0143398 0.00823566 0 0 0 -6.67555e-08 1.05052e-07 -7.14082e-08 -8.35058e-08 -4.3394e-08 3.08796e-08 8.2348e-07 -1.48068e-05 3.64317e-06 0.004 322.925 1.9961 
621 1 1 0.0437182 0.0147846 0.00900765 0 0 0 -2.7045e-07 -5.4431e-08 2.95987e-07 -1.84552e-07 -8.39846e-08 2.31507e-07 -1.78058e-05 4.09624e-05 -5.78616e-06 0.004 771.848 -2.15695 
726 1 1 -0.0257657 0.0199972 0.00692824 0 0 0 -8.44783e-08 5.2391e-08 1.18773e-07 -4.04088e-08 3.47112e-07 -7.77381e-08 1.46618e-05 -1.89216e-05 -1.38172e-05 0.004 366.537 2.79234 
230 1 1 -0.00847466 0.024595 0.00973775 0 0 0 -1.61939e-07 3.92791e-07 5.53599e-07 -8.5373e-08 -1.77054e-07 2.80088e-07 -2.97303e-05 -6.56394e-05 -0.000128338 0.004 488.291 1.3189 
320 1 1 -0.00171265 0.020405 0.00979385 0 0 0 -4.36049e-07 2.34298e-07 8.87255e-07 -1.47038e-07 -1.21798e-07 3.87081e-07 -1.48441e-06 4.65865e-05 7.25939e-05 0.004 536.976 0.343175 
7 1 1 0.0129211 0.0224303 0.00918517 0 0 0 -6.07517e-07 3.74683e-07 6.91065e-07 -1.83562e-07 1.11894e-07 3.58438e-07 -3.19214e-05 -5.99131e-05 -1.22733e-06 0.004 652.563 -2.02537 
83 1 1 0.0214164 0.0239651 0.00888425 0 0 0 -3.36967e-07 1.96378e-07 6.11315e-07 1.20608e-07 1.96255e-07 3.21189e-07 -6.77347e-05 -3.5544e-05 -3.1059e-05 0.004 709.732 -2.74746 
747 1 1 -0.0337321 0.0313835 0.00974072 0 0 0 -4.03957e-08 1.45102e-07 -1.16487e-07 6.25635e-08 1.71377e-07 -2.34965e-07 2.51071e-05 2.58433e-07 1.12694e-05 0.004 354.25 2.88616 
51 1 1 -0.0226192 0.0329654 0.00703451 0 0 0 1.93982e-07 7.59577e-08 1.88359e-07 2.92482e-07 4.58559e-07 -7.1863e-08 4.0185e-06 -8.22806e-05 7.44771e-06 0.004 380.04 3.24708 
116 1 1 -0.00940735 0.0391203 0.00809817 0 0 0 -7.63969e-08 1.54017e-07 7.90145e-08 3.13615e-07 -6.28922e-08 1.59018e-07 -3.16314e-05 -1.77109e-05 5.85103e-06 0.004 490.209 1.41584 
205 1 1 -0.000560455 -0.0460776 0.0110171 0 0 0 -3.39259e-08 4.17357e-07 3.58024e-07 -5.95976e-08 1.03544e-07 2.1167e-07 5.65607e-05 1.32044e-05 -4.68942e-05 0.004 551.021 0.125069 
836 1 1 0.00737985 -0.0454688 0.0106611 0 0 0 -2.63578e-07 3.53725e-07 4.20459e-07 -4.86939e-08 1.23807e-07 1.89873e-07 6.19e-06 -5.09768e-05 4.10081e-05 0.004 593.044 -1.0442 
486 1 1 -0.0156916 -0.0402432 0.0103352 0 0 0 -7.32609e-08 4.46002e-07 5.35682e-07 -6.44162e-08 -3.06646e-07 -1.13957e-07 3.0713e-05 -6.23116e-05 0.000121321 0.004 433.472 2.82001 
311 1 1 -0.0083681 -0.0439882 0.0106791 0 0 0 -3.27162e-07 9.57674e-07 5.52984e-07 -2.77891e-07 2.16819e-08 1.95866e-07 -0.000123825 1.60105e-05 -0.000104237 0.004 483.482 2.32228 
447 1 1 0.0180551 -0.0423881 0.0118323 0 0 0 -3.11667e-07 3.71143e-07 4.38747e-07 -9.96449e-08 1.56799e-07 1.92156e-07 3.45979e-05 5.53405e-05 -1.99569e-05 0.004 654.084 -2.47687 
538 1 1 -0.0295743 -0.035351 0.0149849 0 0 0 -6.3569e-08 4.08411e-07 4.42462e-07 -1.72181e-07 1.36022e-07 1.58469e-07 1.34914e-05 -7.99407e-05 4.26757e-05 0.004 367.731 3.04708 
279 1 1 0.011155 -0.0385417 0.0114152 0 0 0 -6.36461e-07 7.64845e-07 9.64997e-07 -1.87007e-07 3.01054e-07 4.23459e-07 -4.66107e-06 3.57643e-06 1.3489e-05 0.004 622.578 -1.73849 
110 1 1 0.0250464 -0.0386627 0.0117241 0 0 0 -2.60235e-07 2.72477e-07 2.35172e-07 -1.4067e-07 1.52045e-07 1.56286e-07 -2.71151e-05 3.72916e-05 -1.09137e-05 0.004 690.955 -2.99525 
188 1 1 -0.0179041 -0.0321007 0.0101564 0 0 0 -4.99076e-07 9.98677e-07 1.09359e-06 -2.89188e-07 -1.78797e-07 3.68331e-07 -8.10919e-05 -2.81117e-05 5.85148e-05 0.004 418.289 2.67576 
810 1 1 -0.0102601 -0.034451 0.0102036 0 0 0 -5.38196e-07 1.14852e-06 1.23015e-06 -2.63369e-07 -1.45793e-07 4.00677e-07 -4.43046e-05 -0.000104216 9.20597e-05 0.004 467.288 1.97155 
412 1 1 -0.00316744 -0.0328806 0.0133526 0 0 0 -8.40777e-07 1.56902e-06 1.92669e-06 -4.24202e-07 -2.16447e-08 8.38613e-07 1.0559e-05 1.49305e-06 -1.31693e-05 0.004 516.796 0.834654 