ITEM: TIMESTEP
38400
ITEM: NUMBER OF ATOMS
891
ITEM: BOX BOUNDS mm mm mm
-0.05 0.05
-0.05 0.05
0 0.15
ITEM: ATOMS id type type x y z ix iy iz vx vy vz fx fy fz omegax omegay omegaz radius f_Temp[0] f_heatFlux[0] 
199 1 1 -0.00444377 -0.0458158 0.00397435 0 0 0 -1.81825e-07 1.09155e-07 2.53187e-07 8.59688e-08 5.37254e-08 5.13773e-08 2.54977e-05 -3.68967e-05 5.21507e-05 0.004 496.315 2.27888 
873 1 1 -0.0201484 -0.0414789 0.0039016 0 0 0 -9.30802e-08 4.16367e-08 9.34056e-08 2.33138e-08 -3.74491e-08 6.9275e-08 1.3071e-05 -1.8768e-05 9.65557e-06 0.004 409.191 3.60554 
485 1 1 -0.0126796 -0.0442534 0.00397264 0 0 0 -1.52208e-07 1.27179e-07 1.43571e-07 6.50162e-08 -3.14251e-08 8.8262e-08 1.36593e-07 -4.89375e-05 4.24065e-05 0.004 444.395 3.60186 
850 1 1 0.00335642 -0.0441759 0.00394115 0 0 0 -9.485e-08 2.70617e-07 4.19962e-07 9.44077e-08 1.14161e-07 6.62175e-08 -2.08888e-05 1.29016e-05 -5.60886e-05 0.004 553.472 0.202074 
186 1 1 0.0114401 -0.0445988 0.00392827 0 0 0 -1.34611e-07 1.32744e-07 2.72799e-07 3.44355e-08 4.88066e-08 6.29198e-08 -9.1378e-07 8.20521e-06 1.38222e-05 0.004 636.847 -2.5299 
560 1 1 0.018969 -0.0420006 0.00394676 0 0 0 -2.30809e-07 1.39303e-07 2.59546e-07 -1.53126e-08 3.64701e-08 6.05244e-08 1.36744e-05 -1.06936e-05 1.13181e-06 0.004 670.668 -3.1871 
102 1 1 -0.0147501 -0.0357331 0.00386311 0 0 0 -1.98006e-07 1.70821e-07 4.28013e-07 3.32838e-08 -8.82792e-08 1.28157e-07 2.83245e-06 -3.95656e-05 3.16593e-05 0.004 432.631 2.99992 
88 1 1 -0.00730761 -0.0383837 0.00392727 0 0 0 -1.65763e-07 1.75021e-07 4.22163e-07 6.81137e-08 3.15734e-08 8.85322e-08 7.34259e-06 3.94578e-06 -3.78579e-05 0.004 478.197 2.29941 
776 1 1 0.00520385 -0.0354368 0.00395024 0 0 0 -3.43247e-07 4.17395e-07 6.76684e-07 3.98175e-08 1.8097e-07 1.56945e-07 -7.85288e-05 2.87527e-05 -3.35144e-05 0.004 596.106 -1.19451 
410 1 1 0.0130236 -0.0368131 0.00392572 0 0 0 -4.21581e-07 2.53018e-07 5.7669e-07 2.42488e-08 8.52949e-08 1.20135e-07 -2.79469e-06 -3.05332e-05 1.91952e-05 0.004 644.784 -2.5398 
282 1 1 0.025876 -0.0381319 0.00388527 0 0 0 -2.11621e-07 1.47057e-07 2.50895e-07 1.27211e-09 7.86079e-08 9.36906e-08 4.22996e-06 -2.1429e-05 2.36128e-05 0.004 711.94 -3.58959 
682 1 1 -0.0302016 -0.0348779 0.00393465 0 0 0 -1.04466e-07 1.68265e-08 -3.65644e-09 -8.23868e-10 -6.75517e-08 -2.32253e-10 -2.62401e-06 4.04403e-07 1.91401e-05 0.004 358.103 3.24017 
251 1 1 -0.0224189 -0.0338476 0.00392332 0 0 0 -2.04628e-07 6.20217e-08 1.43105e-07 -1.21702e-08 -1.01691e-07 7.43309e-08 -3.71437e-07 -5.6947e-05 1.00399e-05 0.004 392.747 3.38149 
770 1 1 -0.00204754 -0.0321408 0.00393965 0 0 0 -4.44891e-07 3.75691e-07 6.88344e-07 2.89815e-08 1.9017e-07 9.72789e-08 -1.2499e-05 -8.04714e-05 9.18232e-05 0.004 544.498 0.199844 
883 1 1 0.018166 -0.0307536 0.00390023 0 0 0 -6.08903e-07 2.86704e-07 7.87127e-07 1.36687e-09 1.20816e-07 2.07355e-07 -4.8742e-05 -0.000120318 -1.57014e-05 0.004 683.01 -3.13233 
838 1 1 0.0320336 -0.033109 0.00396073 0 0 0 -3.12122e-07 1.91533e-07 3.94419e-07 -4.42217e-08 1.00094e-07 1.73764e-07 3.95879e-05 -3.84197e-06 2.13531e-05 0.004 739.112 -3.47871 
617 1 1 -0.0372521 -0.0271215 0.00391646 0 0 0 -1.55142e-07 -3.11259e-08 -1.02017e-07 -1.22635e-08 -6.69269e-08 -3.20784e-08 -9.78084e-06 -4.82227e-06 1.6118e-05 0.004 331.727 2.68688 
824 1 1 -0.0292998 -0.0270298 0.00392984 0 0 0 -3.14453e-07 5.3667e-09 3.15683e-08 1.42909e-08 -1.09508e-07 3.69437e-08 3.05219e-07 -6.66004e-05 1.78038e-05 0.004 346.933 3.02251 
571 1 1 -0.0202615 -0.0262215 0.00393285 0 0 0 -4.45066e-07 1.08836e-07 4.03487e-07 -1.1708e-07 -1.48546e-07 1.07374e-07 1.46917e-05 -0.000116392 3.78821e-05 0.004 388.803 3.29424 
861 1 1 -0.00959294 -0.0297304 0.00389699 0 0 0 -4.45722e-07 1.94423e-07 7.82405e-07 -8.78318e-08 -4.11523e-08 1.81449e-07 9.52515e-06 -5.71136e-05 -6.26255e-06 0.004 469.564 2.08429 
434 1 1 0.0103455 -0.0293807 0.00393742 0 0 0 -5.99547e-07 3.77237e-07 7.4272e-07 3.43085e-08 8.94166e-08 8.28658e-08 -2.71755e-05 -2.00637e-05 -2.39508e-06 0.004 636.438 -2.18325 
103 1 1 0.0311547 -0.0252347 0.00394363 0 0 0 -5.28412e-07 2.74561e-07 6.74031e-07 1.65231e-08 1.86284e-07 2.98946e-07 -1.37909e-05 8.59015e-06 1.79795e-05 0.004 747.832 -3.18839 
769 1 1 -0.041344 -0.0202818 0.0039823 0 0 0 -1.66746e-07 -3.54411e-08 -1.26768e-07 -2.11973e-08 -4.59989e-08 -3.84947e-08 -1.45063e-05 1.63468e-05 6.78438e-06 0.004 322.289 2.30563 
94 1 1 -0.0333714 -0.0202163 0.0039437 0 0 0 -3.92364e-07 -5.05783e-08 -7.07309e-08 -5.80116e-08 -1.16598e-07 -2.49446e-08 2.19108e-05 -5.92135e-05 1.17753e-05 0.004 334.632 2.64444 
40 1 1 -0.025401 -0.0201464 0.00391762 0 0 0 -5.41591e-07 -2.78336e-09 1.75097e-07 -7.11984e-08 -1.21539e-07 4.22667e-08 -1.75362e-05 -8.44086e-05 2.16145e-05 0.004 357.924 3.00901 
19 1 1 -0.00865072 -0.0218804 0.00393966 0 0 0 -7.61947e-07 1.16378e-07 8.27429e-07 -2.56508e-07 -4.03639e-08 1.4651e-07 -2.35369e-05 -0.000183522 8.05024e-05 0.004 471.294 1.98485 
442 1 1 -0.000436965 -0.02185 0.00393584 0 0 0 -8.27749e-07 5.36828e-10 1.11566e-06 -2.57108e-07 1.10037e-08 2.33951e-07 1.15554e-05 -8.70136e-05 6.13744e-05 0.004 552.317 -0.00878696 
259 1 1 0.00753191 -0.0220001 0.00392511 0 0 0 -7.37537e-07 2.71821e-07 8.5086e-07 -1.03413e-07 -1.59794e-09 1.43702e-07 6.52868e-05 -3.60405e-05 4.43044e-05 0.004 622.906 -1.79758 
512 1 1 0.0153883 -0.0232356 0.00397834 0 0 0 -6.93172e-07 2.27463e-07 5.87806e-07 -6.87888e-08 1.24744e-07 1.30721e-07 -4.30808e-05 -4.27922e-05 -2.79926e-05 0.004 679.284 -2.85386 
470 1 1 0.0232616 -0.0243589 0.00390815 0 0 0 -7.14657e-07 2.55745e-07 9.38521e-07 -3.6226e-08 1.87335e-07 2.97805e-07 -6.38324e-05 -8.33933e-05 2.02057e-05 0.004 719.236 -3.33902 
451 1 1 0.0390293 -0.0244875 0.00392048 0 0 0 -2.59972e-07 1.53175e-07 1.84912e-07 -1.61688e-08 4.97537e-08 8.5337e-08 -3.8e-05 1.36035e-05 -4.15921e-05 0.004 766.759 -2.70479 
531 1 1 -0.0164596 -0.0192004 0.00396125 0 0 0 -7.32145e-07 1.39015e-07 3.69787e-07 -1.03657e-07 -1.46649e-07 1.48144e-07 -0.000104204 -7.85923e-05 3.19078e-05 0.004 400.09 3.32707 
229 1 1 0.0202059 -0.0169136 0.00386875 0 0 0 -1.19737e-06 2.48895e-07 1.11713e-06 -7.6039e-08 1.50343e-07 3.8173e-07 3.31136e-05 -0.000151317 0.000116859 0.004 709.722 -3.03336 
734 1 1 0.0280521 -0.017942 0.00394397 0 0 0 -6.86816e-07 3.62761e-07 7.81468e-07 6.12421e-08 2.93142e-07 2.74129e-07 -4.89949e-05 3.98786e-05 -3.39807e-05 0.004 747.578 -2.9919 
635 1 1 0.0425981 -0.0174495 0.00392191 0 0 0 -1.91084e-07 3.82055e-08 1.06339e-07 -5.11306e-08 -2.08417e-08 8.27556e-08 1.0557e-05 -5.60774e-05 1.37869e-05 0.004 782.263 -1.9672 
87 1 1 -0.0448224 -0.0104639 0.0039142 0 0 0 -1.78049e-07 1.57149e-08 -1.10684e-07 -1.84397e-08 1.60255e-08 -2.14545e-08 6.27496e-06 -1.86669e-05 -1.41936e-05 0.004 312.191 1.58836 
406 1 1 -0.0373951 -0.013391 0.00396016 0 0 0 -3.54947e-07 -7.64387e-08 -1.27704e-07 8.40986e-09 -1.14811e-07 -7.77118e-08 1.11586e-05 -6.20417e-05 6.79067e-06 0.004 320.659 2.09667 
224 1 1 -0.0230581 -0.0126019 0.00387961 0 0 0 -7.70039e-07 -1.43188e-07 2.21854e-07 -1.2229e-07 -2.15415e-07 4.62249e-09 -3.96712e-06 -0.000152221 7.63893e-06 0.004 370.932 2.85222 
751 1 1 -0.0102996 -0.0141545 0.00396945 0 0 0 -1.03449e-06 4.6941e-08 4.70933e-07 -2.09848e-07 -7.6165e-08 4.56812e-08 -1.20689e-05 -0.000152388 1.6482e-05 0.004 449.434 2.27817 
622 1 1 -0.00273388 -0.0117409 0.00388524 0 0 0 -1.18809e-06 6.42069e-08 1.20292e-06 -2.34021e-07 -5.30462e-09 2.30177e-07 -6.26997e-05 -0.000191444 -2.63356e-05 0.004 514.228 0.830457 
128 1 1 0.00951067 -0.010685 0.00388458 0 0 0 -1.50251e-06 3.26673e-07 1.2616e-06 -2.36895e-07 3.85411e-08 2.87182e-07 -7.66138e-05 -0.000167722 -6.05617e-05 0.004 646.07 -2.15878 
68 1 1 0.0262808 -0.010211 0.00395438 0 0 0 -1.01438e-06 2.24526e-07 8.91781e-07 -1.16415e-07 1.19543e-07 5.07003e-07 8.91361e-06 -8.52992e-05 8.18283e-05 0.004 751.837 -2.84995 
791 1 1 0.0340945 -0.0118532 0.00392801 0 0 0 -7.73204e-07 3.96603e-07 5.55642e-07 -9.96723e-08 3.98199e-07 3.79494e-07 -7.74625e-05 -0.000134459 5.3554e-05 0.004 773.517 -2.38047 
354 1 1 -0.0380748 -0.00550396 0.00392042 0 0 0 -5.17286e-07 -8.9979e-08 -2.3322e-07 -4.4843e-08 -1.05519e-07 -7.31062e-08 1.84583e-06 -9.17264e-05 2.45722e-05 0.004 318.397 1.87127 
725 1 1 -0.0304901 -0.00800531 0.0039252 0 0 0 -6.16697e-07 -2.43763e-08 2.42933e-08 -2.95013e-08 -8.90378e-08 -4.90451e-09 -4.87923e-06 -0.000109074 -3.19285e-06 0.004 331.28 2.3626 
353 1 1 -0.0161288 -0.00879809 0.00391144 0 0 0 -8.45158e-07 -2.19633e-07 4.79e-07 -1.71985e-07 -2.52879e-07 8.38709e-08 0.000113836 -2.37815e-05 1.30166e-05 0.004 410.054 2.64556 
391 1 1 -0.00857661 -0.00639748 0.00391357 0 0 0 -1.11461e-06 -5.67748e-08 6.90062e-07 -2.92693e-07 3.25461e-09 2.12077e-07 6.24098e-05 -0.000140519 5.01516e-05 0.004 466.436 1.87186 
683 1 1 0.0173533 -0.00945629 0.00390986 0 0 0 -1.31084e-06 2.2706e-07 1.15174e-06 -1.55454e-07 3.21914e-08 3.94383e-07 -6.81749e-05 -0.000113483 1.50818e-05 0.004 700.36 -2.93728 
690 1 1 0.0385537 -0.00520142 0.00390022 0 0 0 -5.45656e-07 1.6062e-07 4.79463e-07 -8.18863e-08 1.03379e-07 4.73804e-07 -1.22515e-05 -8.77757e-05 -2.99829e-05 0.004 783.947 -1.76343 
10 1 1 0.0449635 -0.00990888 0.00397399 0 0 0 -2.21957e-07 7.96992e-08 2.07529e-07 -5.67697e-08 -8.85432e-09 1.73658e-07 -8.07621e-06 2.12676e-05 9.62594e-06 0.004 788.438 -1.53091 
402 1 1 -0.046017 -0.00264172 0.00392182 0 0 0 -2.68546e-07 2.48164e-08 -2.01204e-07 -3.15248e-08 2.18626e-09 -5.31574e-08 -2.18083e-05 -1.24257e-05 2.31628e-05 0.004 312.351 1.53255 
761 1 1 -0.0294744 -0.000168335 0.00392563 0 0 0 -7.14558e-07 -7.24015e-08 -1.07535e-07 -1.89929e-08 -1.03827e-07 -2.14921e-08 -1.0903e-05 -0.000112386 -3.67496e-06 0.004 342.008 2.50454 
293 1 1 -0.0229324 -0.00466873 0.0039595 0 0 0 -8.43941e-07 -1.95845e-07 2.24215e-07 -1.1468e-07 -1.8259e-07 4.37767e-08 4.1417e-05 -0.000151494 -6.77348e-07 0.004 369.467 2.84497 
384 1 1 -0.0146997 -0.000902886 0.0039815 0 0 0 -8.5123e-05 -0.000536402 -4.39815e-07 -2.05338e-11 -9.41191e-12 2.17585e-07 0.134412 -0.0213301 0.145502 0.004 304.576 0 
378 1 1 0.0013061 -0.00490406 0.00392906 0 0 0 -1.33262e-06 2.17902e-08 8.42823e-07 -3.85814e-07 -2.42352e-08 1.69794e-07 -0.000111781 -0.000243853 1.20087e-06 0.004 555.527 -0.137229 
390 1 1 0.0103707 -0.00276531 0.00396886 0 0 0 -1.281e-06 2.98318e-07 8.39228e-07 -3.97261e-07 -1.39901e-08 3.98094e-07 -6.31948e-05 -0.000164137 1.81615e-05 0.004 659.928 -2.58009 
411 1 1 0.0223603 -0.00329286 0.00397625 0 0 0 -9.83017e-07 1.33831e-07 1.01232e-06 -2.73923e-07 3.80395e-08 6.14799e-07 2.18853e-05 -0.000155409 -8.87982e-05 0.004 734.581 -3.09581 
342 1 1 0.0307348 -0.00361665 0.00397529 0 0 0 -6.19677e-07 3.78383e-07 4.64473e-07 -2.13663e-08 1.48155e-07 3.90302e-07 -6.63038e-05 -2.90073e-05 -6.5734e-05 0.004 773.608 -2.28167 
262 1 1 0.0460221 -0.00206505 0.00395833 0 0 0 -3.02801e-07 2.53283e-08 1.9825e-07 -1.16413e-07 -7.56559e-08 1.37688e-07 3.42676e-05 -2.67168e-05 3.84052e-05 0.004 788.874 -1.4902 
261 1 1 -0.0398214 0.00224601 0.00393476 0 0 0 -4.84776e-07 -4.58026e-08 -3.07396e-07 -1.53118e-08 -6.59238e-08 -7.38238e-08 -4.0793e-06 -4.03563e-05 -2.60395e-05 0.004 318.715 1.81892 
666 1 1 -0.00454676 0.000451427 0.00395604 0 0 0 -1.29483e-06 -2.27928e-07 9.1061e-07 -2.30778e-07 -1.24378e-07 3.56008e-07 6.8767e-05 -5.97588e-05 -1.56701e-05 0.004 504.005 1.12445 
815 1 1 0.00434368 0.0024356 0.00392711 0 0 0 -1.58596e-06 4.93008e-08 6.91466e-07 -4.12084e-07 -3.2981e-08 4.33891e-07 6.89807e-05 -0.000279736 5.83181e-05 0.004 599.124 -1.18581 
306 1 1 0.01637 0.00247666 0.00395809 0 0 0 -1.05174e-06 8.97397e-08 8.59954e-07 -3.05822e-07 8.94395e-08 6.44739e-07 -8.55955e-05 -0.000195914 -0.000149873 0.004 705.311 -3.20839 
178 1 1 0.0241042 0.00444176 0.00386114 0 0 0 -7.40081e-07 2.8498e-08 1.09382e-06 -3.01759e-07 -8.49301e-08 6.75003e-07 -8.05459e-05 -0.000109999 4.91529e-05 0.004 738.316 -2.98221 
862 1 1 0.0320656 0.00423367 0.00393097 0 0 0 -5.60089e-07 3.96672e-07 7.8604e-07 -1.9112e-07 1.30092e-07 5.34291e-07 4.7678e-06 1.78493e-05 1.43903e-05 0.004 767.764 -2.39203 
661 1 1 0.0398756 0.0029147 0.0039468 0 0 0 -4.28065e-07 7.22316e-08 4.19786e-07 -1.394e-07 -9.64061e-08 2.8007e-07 5.23035e-05 -1.73674e-05 -3.30931e-05 0.004 783.119 -1.79395 
677 1 1 -0.0453782 0.0078854 0.00393641 0 0 0 -2.25094e-07 8.5766e-09 -1.85107e-07 4.50212e-08 1.3366e-08 -4.47854e-08 1.25728e-05 -1.01905e-05 -3.43668e-06 0.004 312.736 1.57868 
12 1 1 -0.0333161 0.0067196 0.00393696 0 0 0 -5.75249e-07 -1.01877e-07 -2.83094e-07 4.60526e-08 -9.99861e-08 -3.26886e-08 2.44869e-05 -4.12629e-05 -7.66209e-06 0.004 333.064 2.30121 
420 1 1 -0.0254 0.00664838 0.00392687 0 0 0 -7.80502e-07 -1.54071e-07 -8.07859e-08 4.46316e-08 -6.47237e-08 1.40327e-07 3.08348e-06 -7.964e-05 -3.03677e-05 0.004 359.469 2.70122 
654 1 1 -0.0175134 0.00720947 0.00387212 0 0 0 -1.06003e-06 -2.10212e-07 4.18011e-07 3.5129e-08 -1.15972e-07 3.00247e-07 6.22297e-06 -0.00018049 -1.93383e-05 0.004 399.888 2.75174 
145 1 1 -0.00454407 0.00836537 0.00386311 0 0 0 -1.35258e-06 -1.82517e-07 8.15223e-07 -6.21278e-08 -4.81225e-08 5.26579e-07 -5.85965e-05 -0.0002298 -1.28693e-05 0.004 502.879 1.20296 
624 1 1 0.0451449 0.00890653 0.00390657 0 0 0 -4.81546e-07 1.16279e-08 3.35906e-07 -1.6897e-07 -1.15444e-07 2.38712e-07 -1.02531e-05 -8.8727e-05 2.55639e-05 0.004 786.751 -1.64073 
613 1 1 -0.0372991 0.0135339 0.00384344 0 0 0 -4.64857e-07 -7.72942e-08 -2.95678e-07 1.88273e-07 -5.44921e-08 8.51167e-08 2.3852e-05 -8.5851e-05 -7.3103e-06 0.004 323.28 2.11132 
265 1 1 -0.0293062 0.0135429 0.00396371 0 0 0 -6.1938e-07 -1.20295e-07 -1.85246e-07 1.0326e-07 -2.5385e-08 6.45882e-08 2.35694e-06 -2.99216e-05 1.6011e-05 0.004 345.552 2.73925 
273 1 1 -0.0213694 0.0141274 0.00392939 0 0 0 -7.93583e-07 -9.32021e-08 -2.31828e-08 8.60105e-08 -3.34385e-08 2.21986e-07 -1.84147e-05 -9.33906e-05 -1.70856e-05 0.004 372.476 2.97263 
492 1 1 -0.01145 0.0123712 0.00398079 0 0 0 -1.09097e-06 -1.09833e-07 2.71685e-07 1.76976e-08 -6.36195e-08 3.84826e-07 -7.23536e-05 -6.52726e-05 -2.56147e-06 0.004 448.324 2.46023 
234 1 1 0.00585285 0.010393 0.0039289 0 0 0 -1.43237e-06 -1.66048e-07 8.66438e-07 -2.07898e-07 -2.44428e-07 5.69621e-07 -6.76457e-05 -0.000181328 -0.000131394 0.004 594.892 -0.96163 
160 1 1 0.0142843 0.0106356 0.00390957 0 0 0 -1.28588e-06 -3.14507e-07 9.4015e-07 -3.43497e-07 -3.25317e-07 7.11439e-07 3.33196e-05 -0.000207059 5.12694e-05 0.004 676.49 -2.55636 
484 1 1 0.0220893 0.0120738 0.00390119 0 0 0 -8.355e-07 -7.29608e-08 9.74172e-07 -1.60812e-07 -2.00274e-07 6.22052e-07 3.53669e-05 -2.33776e-05 -1.69715e-05 0.004 725.173 -2.95595 
743 1 1 0.0300184 0.0126216 0.00398127 0 0 0 -5.50032e-07 -3.08715e-07 3.32263e-07 -1.06753e-07 -3.95928e-07 1.32669e-07 4.33047e-05 4.48347e-05 -5.2632e-05 0.004 753.621 -2.74038 
514 1 1 0.0379536 0.0130186 0.00386905 0 0 0 -6.20868e-07 -5.4435e-08 6.08651e-07 -2.42752e-07 -2.61249e-07 3.88914e-07 4.78029e-05 -0.000133016 0.00013352 0.004 774.675 -2.20159 
530 1 1 -0.0159002 0.0198648 0.00392796 0 0 0 -8.82206e-07 -9.82457e-08 7.41064e-08 1.80569e-08 -2.00367e-08 3.7984e-07 -4.36469e-06 -0.000173309 -2.68041e-05 0.004 401.4 2.9616 
227 1 1 -0.00736503 0.0192084 0.00396595 0 0 0 -9.41579e-07 -1.73933e-07 1.51202e-07 -1.9908e-08 2.98804e-08 4.29203e-07 -1.83279e-05 -0.000140596 -5.94637e-05 0.004 483.354 1.80181 
392 1 1 -0.000498627 0.0151513 0.00394446 0 0 0 -1.12114e-06 -1.33055e-07 6.0077e-07 -7.01099e-08 -1.54861e-07 5.31417e-07 -2.36555e-05 -2.74318e-05 3.67908e-05 0.004 537.881 0.428851 
493 1 1 0.0098584 0.0172531 0.00394647 0 0 0 -1.04974e-06 -4.60143e-07 8.34921e-07 -2.53413e-07 -4.74794e-07 7.10341e-07 8.72361e-05 -7.65289e-05 1.41181e-05 0.004 633.758 -1.75936 
34 1 1 0.0176357 0.0187852 0.00394099 0 0 0 -8.45625e-07 -3.15023e-07 1.00242e-06 -1.17547e-07 -5.88615e-07 8.01366e-07 9.44931e-05 -8.39456e-05 5.31931e-05 0.004 688.907 -2.63635 
206 1 1 0.0255397 0.0192353 0.00396993 0 0 0 -5.90582e-07 -1.51408e-07 7.0596e-07 -9.40717e-08 -3.48071e-07 4.54794e-07 2.81186e-05 0.000110285 7.78153e-06 0.004 733.062 -2.9343 
104 1 1 0.0334175 0.0199346 0.0038965 0 0 0 -6.89788e-07 -9.32569e-08 5.73035e-07 -2.59045e-07 -2.29725e-07 3.28409e-07 3.39801e-05 -0.000143252 3.66635e-06 0.004 759.113 -2.71599 
809 1 1 -0.0412058 0.0204949 0.00395497 0 0 0 -1.99769e-07 -2.83985e-08 -1.46351e-07 1.15713e-07 4.22214e-08 8.79272e-08 1.59518e-05 -1.02328e-05 -1.73808e-05 0.004 318.207 2.03908 
773 1 1 -0.0331523 0.0204531 0.00393522 0 0 0 -5.78534e-07 -1.01075e-07 -3.19453e-07 1.48984e-07 -3.39238e-08 9.25852e-08 2.39736e-05 -9.47107e-05 -4.01046e-05 0.004 336.911 2.77728 
792 1 1 0.00347678 0.0219735 0.00392105 0 0 0 -8.27502e-07 -2.99818e-07 5.35469e-07 -1.16645e-07 -3.14063e-07 5.97532e-07 1.93739e-05 -0.000123432 -0.000115194 0.004 580.183 -0.63391 
718 1 1 0.0413199 0.0203659 0.00392989 0 0 0 -4.06129e-07 -5.38056e-09 4.01606e-07 -1.67979e-07 -1.34065e-07 2.01199e-07 -1.99436e-05 5.77344e-06 -2.01012e-05 0.004 773.79 -2.36134 
101 1 1 -0.0371146 0.0272995 0.00390402 0 0 0 -2.59528e-07 -6.85309e-09 -1.42526e-07 1.3255e-07 -1.38364e-08 8.4864e-08 1.13985e-05 -3.6824e-05 -1.33595e-05 0.004 329.807 2.61216 
246 1 1 -0.0290567 0.0272807 0.00398271 0 0 0 -6.04686e-07 -1.02431e-07 -1.62916e-07 -1.16235e-07 -6.52502e-08 1.25762e-07 -2.4319e-06 -4.06613e-05 5.82194e-05 0.004 343.913 3.2022 
331 1 1 -0.0212281 0.0257798 0.00390018 0 0 0 -6.54574e-07 -5.17079e-08 -1.50455e-07 2.51516e-08 -2.05981e-08 3.73656e-07 3.34761e-05 -7.51482e-05 -2.90319e-05 0.004 374.761 3.18693 
846 1 1 -0.0134708 0.0274168 0.0039748 0 0 0 -7.4867e-07 -2.58533e-09 4.05442e-08 5.65251e-08 -1.28828e-07 2.87399e-07 -6.76082e-05 -7.21077e-05 2.77276e-05 0.004 421.13 2.68759 
348 1 1 -0.00329916 0.0260612 0.00393374 0 0 0 -7.30639e-07 -1.40208e-07 2.10332e-07 2.6667e-08 -1.50077e-07 4.57941e-07 1.23685e-05 -7.09617e-05 3.89675e-05 0.004 522.099 0.79245 
786 1 1 0.00840353 0.0281551 0.00389684 0 0 0 -5.20456e-07 -3.33792e-07 6.52712e-07 -1.52108e-07 -3.71262e-07 6.82837e-07 4.44233e-05 -5.05395e-05 4.72572e-05 0.004 618.709 -1.6219 
316 1 1 0.0162833 0.0272928 0.00390629 0 0 0 -4.91486e-07 -2.68513e-07 5.54077e-07 -1.35521e-07 -4.75152e-07 4.97386e-07 -3.07404e-06 -1.93457e-05 -1.39598e-05 0.004 681.176 -2.86726 
495 1 1 0.0288861 0.0264618 0.00396715 0 0 0 -5.47246e-07 -1.18228e-07 4.8019e-07 -2.44707e-07 -2.33479e-07 3.54112e-07 5.60388e-05 -1.909e-05 1.49968e-05 0.004 745.334 -3.11091 
863 1 1 0.0367263 0.0277633 0.00392936 0 0 0 -3.40469e-07 -2.99937e-08 2.62205e-07 -1.61459e-07 -9.94397e-08 1.57808e-07 -1.32765e-05 -3.29546e-05 -3.01354e-05 0.004 765.398 -2.83815 
511 1 1 -0.00761835 0.0327132 0.00388553 0 0 0 -5.36143e-07 -4.5957e-08 -5.24448e-08 1.64211e-07 -2.07975e-07 4.29131e-07 -3.38308e-05 -9.89377e-05 -7.92679e-05 0.004 491.324 1.45892 
722 1 1 0.00164033 0.0322874 0.00396635 0 0 0 -5.36414e-07 -2.41134e-07 3.16372e-07 -8.45073e-08 -2.98788e-07 4.55285e-07 1.57086e-05 -0.000107744 -8.12876e-05 0.004 564.787 -0.328719 
2 1 1 0.0229311 0.031696 0.00396243 0 0 0 -5.5188e-07 -1.04966e-07 5.04485e-07 -3.45484e-07 -2.10729e-07 4.10654e-07 -1.07807e-05 -8.45575e-05 -1.20985e-05 0.004 712.965 -3.41484 
254 1 1 0.0305277 0.0343487 0.0039815 0 0 0 0.000481608 -0.000706171 1.56172e-14 1.22835e-18 1.92599e-18 1.9134e-14 0.176952 0.120681 -0.0211551 0.004 798.547 0 
257 1 1 -0.0296322 0.0352231 0.00395613 0 0 0 -4.57811e-07 -1.28344e-07 -7.2404e-08 -5.10975e-08 -1.20321e-07 2.12776e-07 3.34905e-05 -8.20082e-05 -0.000106145 0.004 347.489 3.46957 
582 1 1 -0.0157655 0.0356206 0.00393204 0 0 0 -8.74282e-07 -2.58147e-08 4.8974e-08 -1.49663e-08 -4.52118e-07 4.52188e-07 4.45196e-06 -0.000207475 -2.75869e-05 0.004 394.043 3.76941 
255 1 1 -0.00267125 0.038932 0.00391147 0 0 0 -2.17892e-07 -1.26369e-07 1.16051e-07 1.91314e-08 -2.33885e-07 4.19008e-07 2.4285e-05 -4.06548e-05 -7.04522e-06 0.004 524.237 0.711369 
887 1 1 0.00812084 0.0373183 0.00392888 0 0 0 -3.92635e-07 -2.38399e-07 3.14573e-07 -1.66814e-07 -4.31512e-07 4.4527e-07 2.69913e-05 -6.04369e-05 2.21613e-05 0.004 634.042 -2.37866 
719 1 1 0.0157853 0.0351951 0.00398363 0 0 0 -2.85281e-07 -1.0339e-07 2.52332e-07 -1.0789e-07 -2.06438e-07 2.53673e-07 -2.96123e-05 1.34896e-05 -2.8096e-05 0.004 681.231 -3.218 
21 1 1 0.0234243 0.0396338 0.00391497 0 0 0 -1.50976e-07 -2.43181e-08 1.64625e-07 -6.01808e-08 -8.12464e-08 9.53465e-08 -2.46474e-05 -1.91374e-05 -3.75253e-05 0.004 714.915 -3.64132 
325 1 1 -0.0222388 0.0402984 0.00393951 0 0 0 -4.62842e-07 -5.15634e-08 -1.91667e-07 -2.3779e-08 -9.75529e-08 1.48414e-07 4.83935e-05 -6.66598e-05 -9.01166e-05 0.004 382.504 3.87062 
595 1 1 -0.014931 0.0435393 0.00398254 0 0 0 -2.83206e-07 -4.20971e-08 4.43352e-08 3.94567e-08 -1.20627e-07 2.39246e-07 -9.16027e-06 -3.24876e-05 -6.0469e-05 0.004 417.049 3.52538 
568 1 1 0.0162912 0.0430934 0.00392629 0 0 0 -1.28046e-07 -8.48312e-08 1.31881e-07 -2.34677e-08 -1.30451e-07 8.43047e-08 1.44591e-05 -1.16795e-06 1.97254e-05 0.004 678.01 -3.19355 
387 1 1 -0.00719691 0.045487 0.00389932 0 0 0 -6.01482e-08 -3.02293e-08 2.80772e-08 2.43764e-08 -9.98532e-08 2.16667e-07 -7.89063e-06 1.37785e-06 1.81115e-06 0.004 494.699 1.56593 
852 1 1 0.000758888 0.0460615 0.00397617 0 0 0 -1.04268e-07 -3.28699e-08 6.94866e-08 1.6177e-09 -6.11639e-08 1.89606e-07 -2.08646e-05 -5.47893e-06 -1.34658e-05 0.004 554.393 -0.122087 
157 1 1 0.00865318 0.0452493 0.00389824 0 0 0 -1.93666e-07 -1.58851e-07 1.77397e-07 -8.43608e-08 -2.28749e-07 2.44368e-07 6.12618e-06 -2.84126e-05 -2.92626e-05 0.004 625.154 -2.07069 
400 1 1 -0.024752 -0.0387964 0.00974418 0 0 0 -2.19314e-07 8.5654e-08 1.10916e-07 6.37157e-08 -2.88781e-08 1.29444e-07 -9.25583e-06 -1.86005e-07 1.22515e-05 0.004 377.953 3.73936 
606 1 1 -0.000653936 -0.0387266 0.00813891 0 0 0 -4.65458e-07 4.26226e-07 9.29084e-07 3.73497e-08 2.11392e-07 2.13474e-07 1.41809e-05 -0.000151484 0.000105089 0.004 549.138 0.198056 
724 1 1 -0.0339144 -0.0311598 0.00984801 0 0 0 -2.90668e-07 -3.90436e-09 -2.64506e-08 1.10646e-09 -8.98625e-08 -1.79558e-08 7.5498e-06 -5.34612e-05 6.09094e-06 0.004 340.559 2.95365 
183 1 1 0.0251947 -0.0311656 0.00751474 0 0 0 -6.92941e-07 1.29763e-07 1.04394e-06 4.36357e-09 1.18025e-07 3.9359e-07 0.000114301 -7.1616e-06 3.83611e-05 0.004 721.78 -3.44912 
544 1 1 -0.0140217 -0.0253028 0.00874964 0 0 0 -1.08197e-06 2.67126e-07 1.32263e-06 -2.793e-07 -3.52862e-07 3.58439e-07 2.3668e-05 -9.86966e-05 3.31815e-05 0.004 427.281 2.74713 
29 1 1 -0.00450628 -0.0263793 0.00900728 0 0 0 -1.2125e-06 4.88766e-07 2.0146e-06 -3.86763e-07 4.85272e-08 3.71135e-07 -0.000169661 -0.000142103 2.56595e-08 0.004 501.978 1.30046 
248 1 1 0.00349901 -0.0278426 0.00763307 0 0 0 -8.98443e-07 4.5724e-07 2.07199e-06 -1.70154e-09 2.62794e-07 3.52475e-08 0.0003047 3.38685e-05 -1.86411e-05 0.004 584.113 -0.903572 
79 1 1 0.035837 -0.0289489 0.00959646 0 0 0 -4.61293e-07 3.2701e-07 5.73468e-07 -4.12159e-08 1.27704e-07 3.58588e-07 -1.25858e-05 0.000100785 -5.04522e-05 0.004 755.946 -3.06276 
291 1 1 -0.00458871 -0.0173975 0.00909523 0 0 0 -1.89147e-06 1.92587e-07 1.7948e-06 -5.96306e-07 -9.78325e-08 3.38746e-07 7.94144e-06 -3.63421e-05 -5.04646e-05 0.004 510.935 0.911685 
891 1 1 0.0037349 -0.015528 0.00632508 0 0 0 -1.49431e-06 1.66987e-07 1.89038e-06 -3.56236e-07 3.59541e-08 3.21562e-07 -1.23104e-05 8.39515e-05 0.000113638 0.004 583.59 -0.8193 
870 1 1 0.0138323 -0.0156364 0.00831016 0 0 0 -2.47449e-06 2.51658e-07 2.20789e-06 -3.63427e-07 -6.18419e-08 4.49052e-07 -5.39046e-05 5.78442e-05 -8.32246e-05 0.004 667.771 -2.59556 
777 1 1 0.034969 -0.018778 0.00771 0 0 0 -5.67398e-07 2.8833e-07 6.25466e-07 9.51039e-08 2.75758e-07 3.09315e-07 0.000141485 7.39944e-06 7.84673e-05 0.004 768.15 -2.63943 
837 1 1 -0.029449 -0.0146727 0.00803326 0 0 0 -8.54371e-07 -2.47042e-08 3.52115e-08 -5.96749e-08 -2.22036e-07 -1.18235e-08 -1.78919e-05 2.56411e-06 1.5179e-05 0.004 342.312 2.61435 
445 1 1 -0.0181359 -0.0138493 0.00995275 0 0 0 -2.18256e-06 -3.06816e-07 1.63446e-06 -5.41615e-07 -6.72966e-07 3.43762e-07 -7.98426e-05 -0.000265112 -8.86645e-05 0.004 396.831 2.80379 
783 1 1 0.004859 -0.00860657 0.00993767 0 0 0 -2.86653e-06 3.70085e-07 2.27101e-06 -6.29063e-07 5.27008e-09 4.49456e-07 6.30766e-06 -0.000153022 0.000114595 0.004 596.149 -1.09257 
615 1 1 -0.0350999 -0.000758712 0.00955182 0 0 0 -1.1925e-06 -1.37085e-07 -3.51442e-07 -1.08661e-07 -2.39573e-07 -9.68938e-08 1.1362e-06 -6.23678e-05 3.5734e-05 0.004 325.077 2.02596 
476 1 1 -0.0459522 0.00262139 0.00988978 0 0 0 -3.80012e-07 5.74856e-08 -3.15331e-07 -1.54706e-08 -2.66248e-08 -7.04384e-08 -1.25887e-05 1.40391e-05 8.69678e-06 0.004 310.581 1.42492 
16 1 1 -0.0210456 0.00169438 0.00830926 0 0 0 -1.64399e-06 -3.30506e-07 3.76787e-07 -9.29411e-08 -3.752e-07 1.97252e-07 -1.60867e-06 -8.87549e-05 1.20976e-05 0.004 377.736 2.77573 
303 1 1 0.0459492 0.00350463 0.00962656 0 0 0 -5.7347e-07 6.77785e-08 6.50177e-07 -1.07949e-07 -8.7514e-08 4.52023e-07 -1.47484e-05 0.000141733 -1.9839e-05 0.004 787.747 -1.55771 
523 1 1 -0.0389797 0.0080308 0.00932861 0 0 0 -9.1946e-07 2.03342e-08 -6.82589e-07 -2.17774e-08 -1.43186e-07 -1.44803e-07 -3.94428e-05 -7.43161e-05 4.22648e-07 0.004 319.309 1.8666 
704 1 1 -0.010798 0.00519222 0.00743859 0 0 0 -2.02062e-06 -3.09607e-07 1.34125e-06 -1.8308e-07 -2.46639e-07 8.44656e-07 -7.53825e-05 -5.91685e-05 -9.09259e-06 0.004 447.244 2.28749 
454 1 1 0.00101181 0.00715932 0.00933955 0 0 0 -2.64669e-06 -4.8426e-07 1.69693e-06 -4.46498e-07 -4.64528e-07 1.00362e-06 0.000193323 8.0755e-06 4.99382e-05 0.004 554.226 -0.0655312 
31 1 1 0.0102165 0.0054759 0.00832589 0 0 0 -2.64054e-06 -8.87994e-08 2.00415e-06 -5.22682e-07 -2.87174e-07 1.44484e-06 -0.000152631 -5.19341e-05 -0.000107338 0.004 638.465 -1.94982 
135 1 1 0.0188886 0.0074917 0.00960782 0 0 0 -2.15635e-06 -1.67701e-07 1.68172e-06 -6.81998e-07 -2.42649e-07 1.23315e-06 8.1381e-05 -0.000290404 7.52557e-05 0.004 717.076 -3.18832 
712 1 1 0.0281139 0.00743267 0.00998854 0 0 0 -1.87271e-06 -2.2885e-07 2.07923e-06 -7.08118e-07 -6.2433e-07 1.41662e-06 0.00026805 -0.000190798 7.84932e-05 0.004 751.475 -2.7958 
210 1 1 0.0394934 0.00814607 0.00989879 0 0 0 -1.30818e-06 5.2387e-08 1.07422e-06 -3.45538e-07 -3.93394e-07 8.0477e-07 -3.5621e-05 -0.000203745 -2.15058e-06 0.004 781.364 -1.90171 
651 1 1 -0.0437987 0.0143398 0.00823566 0 0 0 -4.14045e-07 -2.96475e-08 -3.07312e-07 1.0933e-07 -2.19367e-08 3.54594e-08 7.48986e-06 4.48145e-07 -1.99697e-05 0.004 315.812 1.80177 
621 1 1 0.0437182 0.0147846 0.00900765 0 0 0 -7.48743e-07 5.79997e-08 6.4656e-07 -2.79841e-07 -1.40461e-07 3.503e-07 -3.96549e-05 8.83688e-05 -5.47281e-05 0.004 779.659 -2.01645 
726 1 1 -0.0257657 0.0199972 0.00692824 0 0 0 -9.44514e-07 -7.91692e-08 -3.75917e-07 2.06125e-07 -9.37071e-08 3.59803e-07 -4.26445e-05 -1.38387e-05 3.7372e-05 0.004 355.674 3.03388 
230 1 1 -0.00847466 0.024595 0.00973775 0 0 0 -1.56305e-06 -5.77329e-07 8.35842e-08 -1.50435e-07 -5.88616e-07 8.99827e-07 7.29272e-05 -0.000110208 2.50512e-05 0.004 482.783 1.66028 
320 1 1 -0.00171265 0.020405 0.00979384 0 0 0 -1.78877e-06 -4.13821e-07 7.69182e-07 -2.15804e-07 -6.03455e-07 1.1048e-06 2.51074e-05 -5.68326e-05 3.49788e-05 0.004 535.439 0.495936 
7 1 1 0.0129211 0.0224303 0.00918517 0 0 0 -1.64498e-06 -5.28755e-07 1.4032e-06 -3.54499e-07 -8.74825e-07 1.3169e-06 -5.10304e-05 -0.000127072 -0.000100509 0.004 660.795 -2.40943 
83 1 1 0.0214164 0.0239651 0.00888425 0 0 0 -1.2093e-06 -2.40141e-07 1.38842e-06 -3.68866e-07 -6.79351e-07 9.58393e-07 -9.88415e-05 -0.000245173 -6.9347e-05 0.004 720.618 -3.10189 
747 1 1 -0.0337321 0.0313835 0.00974072 0 0 0 -6.04717e-07 -6.782e-08 -1.57881e-07 1.73987e-07 -1.54578e-07 4.30271e-07 1.11517e-05 -4.21325e-05 -5.05319e-05 0.004 343.218 3.02005 
51 1 1 -0.0226192 0.0329654 0.0070345 0 0 0 -8.89951e-07 -1.75168e-07 -2.0956e-07 -4.90554e-08 -1.65949e-07 4.4983e-07 -3.10706e-05 6.23962e-05 4.6297e-05 0.004 367.225 3.62814 
116 1 1 -0.00940735 0.0391203 0.00809816 0 0 0 -5.61973e-07 -8.25585e-08 -3.07701e-07 5.35385e-08 -3.51623e-07 6.35756e-07 8.2047e-05 -0.000140691 -9.08003e-05 0.004 484.346 1.75063 
205 1 1 -0.000560454 -0.0460776 0.0110171 0 0 0 -2.57431e-07 2.46789e-07 4.48513e-07 1.05084e-07 1.11429e-07 1.57011e-07 7.17975e-05 -2.03475e-05 5.09114e-06 0.004 550.399 0.218628 
836 1 1 0.00737985 -0.0454688 0.0106611 0 0 0 -3.14215e-07 2.15618e-07 5.56972e-07 5.60407e-08 9.78348e-08 9.76993e-08 4.47817e-05 -5.50581e-05 3.00224e-05 0.004 597.392 -1.30488 
486 1 1 -0.0156916 -0.0402432 0.0103352 0 0 0 -3.8223e-07 1.1296e-07 3.5188e-07 4.8599e-08 -4.94378e-08 2.15477e-07 1.82133e-05 -7.42428e-05 4.82194e-05 0.004 421.883 3.42244 
311 1 1 -0.0083681 -0.0439882 0.0106791 0 0 0 -5.91384e-07 3.75435e-07 4.67553e-07 2.77313e-07 5.13539e-08 1.30738e-07 -4.06884e-05 -6.82636e-05 -6.82804e-05 0.004 473.501 3.0772 
447 1 1 0.0180551 -0.0423881 0.0118323 0 0 0 -4.12589e-07 3.20536e-07 6.11794e-07 -2.17203e-08 9.34227e-08 1.48665e-07 3.76053e-05 0.000110564 -1.16671e-05 0.004 664.289 -3.02591 
538 1 1 -0.0295743 -0.035351 0.0149849 0 0 0 -5.45705e-07 1.35691e-08 1.21799e-07 -7.42962e-08 -1.20814e-07 1.21507e-07 1.51427e-05 -6.36056e-05 6.75699e-05 0.004 355.867 3.31174 
279 1 1 0.011155 -0.0385417 0.0114152 0 0 0 -8.98549e-07 5.16399e-07 1.39664e-06 -2.07962e-08 1.39812e-07 3.02746e-07 1.60803e-05 -1.51255e-05 6.50544e-05 0.004 629.764 -2.13841 
110 1 1 0.0250464 -0.0386627 0.0117241 0 0 0 -4.40047e-07 2.65199e-07 4.36165e-07 -4.78056e-08 1.16362e-07 1.49782e-07 1.57287e-05 -8.5419e-06 4.68495e-06 0.004 703.051 -3.51147 
188 1 1 -0.0179041 -0.0321007 0.0101564 0 0 0 -8.5637e-07 2.23606e-07 7.457e-07 -7.58241e-08 -3.58465e-07 2.81844e-07 1.16757e-05 -9.99423e-05 5.29531e-05 0.004 407.482 3.1386 
810 1 1 -0.0102601 -0.034451 0.0102036 0 0 0 -8.35913e-07 4.89433e-07 1.1906e-06 3.52413e-09 -1.09197e-07 2.88589e-07 -1.98227e-05 -0.000161764 9.55887e-05 0.004 459.142 2.42087 
412 1 1 -0.00316744 -0.0328806 0.0133526 0 0 0 -1.42926e-06 7.70662e-07 2.4974e-06 -1.5861e-07 9.47702e-08 4.8997e-07 6.69346e-05 -6.26815e-05 6.77984e-06 0.004 513.3 1.05353 