ITEM: TIMESTEP
39200
ITEM: NUMBER OF ATOMS
891
ITEM: BOX BOUNDS mm mm mm
-0.05 0.05
-0.05 0.05
0 0.15
ITEM: ATOMS id type type x y z ix iy iz vx vy vz fx fy fz omegax omegay omegaz radius f_Temp[0] f_heatFlux[0] 
199 1 1 -0.00444377 -0.0458158 0.00397435 0 0 0 -1.0631e-07 -6.47609e-08 -1.16445e-07 -1.42478e-08 9.2986e-08 1.86827e-07 -1.68764e-05 -4.91436e-07 1.47657e-05 0.004 498.368 2.12598 
873 1 1 -0.0201484 -0.0414789 0.0039016 0 0 0 -1.39977e-07 -4.30438e-08 -1.83819e-08 -2.17814e-08 5.36971e-08 1.16825e-07 6.27751e-07 -2.08648e-05 1.08366e-05 0.004 412.475 3.43925 
485 1 1 -0.0126796 -0.0442534 0.00397264 0 0 0 -1.04746e-07 -5.56444e-08 -9.05438e-08 -2.32922e-08 4.30178e-08 1.64657e-07 -3.52875e-06 1.42842e-05 2.94114e-06 0.004 447.649 3.38112 
850 1 1 0.00335642 -0.0441759 0.00394115 0 0 0 -1.75922e-07 -2.00709e-07 -1.51771e-07 2.84032e-08 1.60136e-07 1.99641e-07 4.17335e-05 -3.30169e-05 -5.28389e-06 0.004 553.654 0.188123 
186 1 1 0.0114401 -0.0445988 0.00392827 0 0 0 -8.46426e-08 -1.257e-07 -1.1794e-07 -6.71352e-10 7.20906e-08 1.39186e-07 6.66639e-06 -3.54078e-05 1.3081e-05 0.004 634.559 -2.37927 
560 1 1 0.018969 -0.0420006 0.00394676 0 0 0 -3.51331e-08 -1.08077e-07 -8.75974e-08 -7.43268e-08 6.09509e-08 1.12738e-07 -3.59021e-06 7.34933e-06 3.52802e-06 0.004 667.774 -3.02347 
102 1 1 -0.0147501 -0.0357331 0.00386311 0 0 0 -1.97607e-07 -1.30286e-07 7.62814e-09 -5.91628e-08 1.38861e-07 3.48212e-07 1.84212e-05 -4.75493e-06 -1.82231e-05 0.004 435.36 2.8554 
88 1 1 -0.00730761 -0.0383837 0.00392727 0 0 0 -2.14158e-07 -1.59807e-07 -1.10299e-07 -2.57264e-08 1.26526e-07 2.95457e-07 4.2052e-05 -5.62669e-06 4.31069e-06 0.004 480.278 2.16408 
776 1 1 0.00520385 -0.0354368 0.00395023 0 0 0 -1.84425e-07 -3.17388e-07 -2.41112e-07 -7.04211e-08 1.81e-07 2.89945e-07 3.25697e-05 -7.91591e-06 5.65899e-07 0.004 595.021 -1.13289 
410 1 1 0.0130236 -0.0368131 0.00392572 0 0 0 -1.24889e-07 -2.19434e-07 -2.30472e-07 -9.20486e-08 1.1294e-07 2.45175e-07 -3.83616e-06 -1.77177e-05 1.71095e-05 0.004 642.479 -2.40451 
282 1 1 0.025876 -0.0381319 0.00388527 0 0 0 -4.35416e-08 -2.22861e-07 -1.54218e-07 -5.25156e-08 1.1041e-07 1.01936e-07 1.89839e-05 -1.76242e-05 5.82747e-06 0.004 708.657 -3.45221 
682 1 1 -0.0302016 -0.0348779 0.00393465 0 0 0 -2.82524e-08 -7.85477e-09 2.26891e-08 -3.61884e-08 -1.24336e-08 4.44299e-08 1.13698e-05 1.66554e-05 -5.93515e-06 0.004 361.094 3.1737 
251 1 1 -0.0224189 -0.0338476 0.00392332 0 0 0 -1.38279e-07 -5.73563e-08 2.47868e-08 -9.20448e-08 5.26765e-08 1.87591e-07 1.15686e-05 -2.48715e-05 1.38967e-06 0.004 395.841 3.25445 
770 1 1 -0.00204753 -0.0321408 0.00393964 0 0 0 -2.15296e-07 -3.09847e-07 -1.59186e-07 -7.20665e-08 2.02287e-07 2.77056e-07 5.8699e-05 -8.22866e-07 -3.2761e-05 0.004 544.677 0.185107 
883 1 1 0.018166 -0.0307536 0.00390023 0 0 0 -1.22958e-07 -4.082e-07 -4.06324e-07 -1.54508e-07 1.62976e-07 2.58931e-07 5.97914e-05 1.78641e-05 -3.51043e-05 0.004 680.155 -2.99284 
838 1 1 0.0320336 -0.033109 0.00396072 0 0 0 1.19844e-08 -2.09066e-07 -2.13964e-07 -1.10206e-07 1.23508e-07 1.11425e-07 -1.76894e-05 -1.35385e-05 1.52693e-05 0.004 735.908 -3.39118 
617 1 1 -0.0372521 -0.0271215 0.00391646 0 0 0 2.7675e-08 4.34152e-08 8.04905e-08 -7.45108e-08 -3.79039e-08 -1.41567e-08 -8.32534e-06 1.58915e-06 -1.13425e-07 0.004 334.237 2.69403 
824 1 1 -0.0292998 -0.0270298 0.00392984 0 0 0 -8.21768e-09 -1.71626e-08 1.31042e-07 -1.65293e-07 -1.78255e-08 1.42347e-07 9.02327e-06 -1.40741e-05 -5.83979e-06 0.004 349.733 2.98295 
571 1 1 -0.0202615 -0.0262215 0.00393285 0 0 0 -1.47827e-07 -1.14905e-07 1.03551e-07 -3.03208e-07 1.00425e-07 3.69972e-07 2.2391e-05 -3.11107e-05 -2.40519e-05 0.004 391.816 3.16912 
861 1 1 -0.00959294 -0.0297304 0.00389698 0 0 0 -2.70852e-07 -2.34869e-07 -7.7037e-08 -1.92193e-07 1.64938e-07 4.83906e-07 1.14753e-05 -2.38489e-05 2.67126e-05 0.004 471.455 1.97306 
434 1 1 0.0103455 -0.0293807 0.00393742 0 0 0 -1.74077e-07 -3.70556e-07 -3.23488e-07 -1.22273e-07 1.66335e-07 2.42263e-07 2.77329e-05 -3.35301e-05 1.42365e-05 0.004 634.454 -2.0738 
103 1 1 0.0311547 -0.0252347 0.00394363 0 0 0 2.40312e-08 -3.17431e-07 -3.82984e-07 -1.66058e-07 1.82962e-07 2.15248e-07 1.72961e-05 -3.2607e-05 1.15522e-05 0.004 744.885 -3.13078 
769 1 1 -0.041344 -0.0202818 0.0039823 0 0 0 2.95016e-08 3.70214e-08 6.70075e-08 -1.02363e-07 -3.74952e-08 -8.02049e-08 1.20215e-05 -1.0418e-05 1.96482e-06 0.004 324.46 2.34795 
94 1 1 -0.0333714 -0.0202163 0.0039437 0 0 0 6.2862e-08 2.07481e-08 1.53318e-07 -2.52674e-07 -7.06062e-08 -2.01018e-09 1.23455e-05 -8.87795e-06 -1.38917e-05 0.004 337.097 2.64211 
40 1 1 -0.025401 -0.0201464 0.00391761 0 0 0 4.97697e-08 -4.17806e-08 1.48487e-07 -3.54646e-07 3.59651e-09 1.7235e-07 -2.35202e-06 -1.65931e-06 -2.09683e-05 0.004 360.699 2.94403 
19 1 1 -0.00865072 -0.0218804 0.00393966 0 0 0 -2.22522e-07 -2.67992e-07 -1.77522e-07 -3.98129e-07 1.23483e-07 4.05949e-07 5.67415e-06 -2.0394e-05 -4.68889e-05 0.004 473.092 1.87303 
442 1 1 -0.000436965 -0.02185 0.00393583 0 0 0 -2.68143e-07 -4.6677e-07 -3.58153e-07 -3.79175e-07 2.30091e-08 5.34549e-07 5.7187e-05 -2.16446e-05 -3.68257e-05 0.004 552.305 -0.0165597 
259 1 1 0.00753192 -0.0220001 0.00392511 0 0 0 -2.59858e-07 -5.54639e-07 -3.07136e-07 -2.20051e-07 3.03684e-08 3.36235e-07 7.82929e-05 -7.12446e-05 2.79013e-05 0.004 621.272 -1.70786 
512 1 1 0.0153883 -0.0232356 0.00397834 0 0 0 -6.76467e-08 -4.38714e-07 -3.87864e-07 -1.89666e-07 1.60063e-07 1.63261e-07 1.18755e-05 7.53327e-05 -3.34879e-05 0.004 676.68 -2.7328 
470 1 1 0.0232616 -0.0243589 0.00390815 0 0 0 -2.21758e-08 -5.41396e-07 -5.8244e-07 -2.17318e-07 2.39145e-07 2.99588e-07 0.000107548 -1.4594e-05 1.89038e-05 0.004 716.175 -3.22758 
451 1 1 0.0390293 -0.0244875 0.00392048 0 0 0 2.60556e-08 -1.40775e-07 -1.07067e-07 -7.74736e-08 9.71361e-08 4.46337e-08 2.61722e-05 -1.99714e-05 3.39103e-05 0.004 764.236 -2.70567 
531 1 1 -0.0164596 -0.0192004 0.00396125 0 0 0 1.47492e-09 -1.46425e-07 6.63503e-08 -3.96147e-07 1.12807e-07 3.19579e-07 9.07519e-06 3.00328e-05 -5.05546e-06 0.004 403.121 3.17645 
229 1 1 0.0202059 -0.0169136 0.00386875 0 0 0 1.19297e-07 -6.09469e-07 -8.26466e-07 -3.21223e-07 2.43227e-07 4.52453e-07 6.26118e-05 -6.49092e-06 -2.58956e-05 0.004 706.944 -2.92556 
734 1 1 0.0280521 -0.017942 0.00394397 0 0 0 1.16652e-08 -5.60097e-07 -4.42013e-07 -2.04747e-07 2.66114e-07 3.34774e-07 6.86455e-05 -6.95934e-05 1.71807e-05 0.004 744.811 -2.943 
635 1 1 0.0425981 -0.0174495 0.00392191 0 0 0 1.09278e-07 -6.6912e-08 -9.41581e-08 -3.61652e-08 2.80047e-08 -4.44627e-09 -6.64792e-06 3.99903e-05 -2.85749e-05 0.004 780.401 -2.02317 
87 1 1 -0.0448224 -0.0104639 0.0039142 0 0 0 1.1537e-07 -1.06672e-08 7.43313e-08 -7.73536e-08 -1.5351e-08 -4.53228e-08 -5.37868e-06 1.52507e-05 1.14452e-05 0.004 313.707 1.66153 
406 1 1 -0.0373951 -0.013391 0.00396016 0 0 0 1.4382e-07 6.69529e-08 1.27008e-07 -1.81889e-07 -1.04793e-07 -7.93382e-08 -1.25946e-05 1.3644e-05 -1.57431e-05 0.004 322.635 2.13942 
224 1 1 -0.023058 -0.0126019 0.00387961 0 0 0 1.85227e-07 -6.71821e-08 2.04604e-08 -4.32349e-07 -1.25697e-07 8.837e-08 9.4622e-06 4.82272e-05 -6.47391e-06 0.004 373.552 2.76854 
751 1 1 -0.0102996 -0.0141545 0.00396945 0 0 0 8.32275e-08 -2.04728e-07 -3.03242e-07 -4.12438e-07 -7.32908e-10 2.05453e-07 -1.33926e-05 3.09782e-05 -1.69261e-05 0.004 451.502 2.15775 
622 1 1 -0.00273388 -0.0117409 0.00388524 0 0 0 9.57765e-08 -3.78902e-07 -6.28535e-07 -3.46774e-07 3.46271e-08 4.66339e-07 5.70031e-05 4.10719e-05 -5.88304e-05 0.004 514.98 0.782986 
128 1 1 0.00951067 -0.010685 0.00388458 0 0 0 2.3596e-07 -6.19071e-07 -1.03764e-06 -4.38619e-07 9.77877e-08 6.09705e-07 0.00010674 2.74603e-05 2.0345e-05 0.004 644.109 -2.04996 
68 1 1 0.0262808 -0.010211 0.00395438 0 0 0 2.71145e-07 -6.13174e-07 -6.39004e-07 -3.87104e-07 2.73648e-07 4.13964e-07 5.42111e-05 -1.42538e-06 -4.51185e-05 0.004 749.201 -2.80501 
791 1 1 0.0340945 -0.0118532 0.00392801 0 0 0 1.65306e-07 -5.23687e-07 -4.76915e-07 -3.1457e-07 3.40212e-07 2.56347e-07 9.07924e-05 3.20395e-05 -2.95274e-05 0.004 771.286 -2.40379 
354 1 1 -0.0380748 -0.00550396 0.00392042 0 0 0 3.31093e-07 4.18481e-08 1.43045e-07 -3.08002e-07 -9.58439e-08 -1.52847e-07 -1.75481e-06 6.64523e-05 -1.95751e-05 0.004 320.164 1.91641 
725 1 1 -0.0304901 -0.00800531 0.0039252 0 0 0 2.93006e-07 -3.51595e-08 4.30898e-08 -3.60088e-07 -6.01108e-08 7.12568e-08 -5.59856e-06 5.33741e-05 -1.76664e-05 0.004 333.484 2.36346 
353 1 1 -0.0161288 -0.00879809 0.00391143 0 0 0 2.14348e-07 -1.33844e-07 -2.60717e-07 -4.10361e-07 -2.05899e-07 2.26481e-07 6.23515e-07 3.82255e-05 -1.12516e-05 0.004 412.467 2.5311 
391 1 1 -0.00857661 -0.00639748 0.00391357 0 0 0 2.33566e-07 -1.67039e-07 -5.95516e-07 -3.9448e-07 -3.69338e-08 3.02996e-07 -5.12013e-05 2.78379e-05 -1.09665e-05 0.004 468.134 1.77088 
683 1 1 0.0173533 -0.00945629 0.00390986 0 0 0 2.7841e-07 -5.00727e-07 -7.74192e-07 -4.43246e-07 1.80622e-07 5.41437e-07 0.000104376 9.98423e-06 -1.31612e-05 0.004 697.677 -2.81802 
690 1 1 0.0385537 -0.00520142 0.00390022 0 0 0 7.47535e-08 -3.06668e-07 -4.77413e-07 -2.75205e-07 1.95509e-07 2.7026e-07 4.49363e-05 -5.76613e-06 1.39282e-05 0.004 782.276 -1.82 
10 1 1 0.0449635 -0.00990888 0.00397399 0 0 0 1.18695e-07 -1.13802e-07 -2.12229e-07 -8.23094e-08 8.14057e-09 1.25212e-07 -2.22081e-07 -1.00264e-05 1.89302e-05 0.004 786.975 -1.60572 
402 1 1 -0.046017 -0.00264172 0.00392182 0 0 0 1.80636e-07 -3.12909e-08 1.24974e-07 -1.65243e-07 -7.89701e-09 -1.25749e-07 1.52134e-05 1.25062e-05 -1.67907e-05 0.004 313.813 1.6008 
761 1 1 -0.0294744 -0.000168336 0.00392563 0 0 0 3.65327e-07 -1.52459e-08 9.62553e-10 -3.7516e-07 -1.02041e-07 -5.80639e-08 -9.10141e-07 6.66962e-05 5.44341e-06 0.004 344.33 2.4758 
293 1 1 -0.0229324 -0.00466873 0.0039595 0 0 0 2.92885e-07 -2.86862e-08 -1.35267e-07 -4.43335e-07 -1.9278e-07 1.0691e-07 -4.04634e-05 4.66505e-05 -2.41193e-05 0.004 372.079 2.75652 
384 1 1 -0.0147014 -0.000913614 0.0039815 0 0 0 -8.51231e-05 -0.000536402 -4.20463e-08 4.77595e-13 2.88581e-12 -9.97889e-08 0.134411 -0.0213301 0.145502 0.004 304.576 0 
378 1 1 0.0013061 -0.00490406 0.00392906 0 0 0 4.25742e-07 -3.14108e-07 -6.19062e-07 -3.37283e-07 -2.80153e-09 3.37761e-07 7.6473e-05 0.000131391 -3.73564e-05 0.004 555.402 -0.130093 
390 1 1 0.0103707 -0.00276531 0.00396886 0 0 0 4.66585e-07 -5.04993e-07 -7.52542e-07 -4.19578e-07 6.10038e-08 4.15171e-07 3.83341e-05 7.81031e-05 -9.06588e-05 0.004 657.589 -2.43885 
411 1 1 0.0223603 -0.00329286 0.00397625 0 0 0 4.52563e-07 -4.68581e-07 -8.64423e-07 -3.97381e-07 1.56244e-07 5.83213e-07 -6.17346e-05 0.00011011 -2.14675e-05 0.004 731.738 -3.00346 
342 1 1 0.0307348 -0.00361665 0.00397529 0 0 0 1.31976e-07 -5.40023e-07 -4.37429e-07 -1.77346e-07 2.21562e-07 2.17853e-07 2.42268e-05 1.80365e-05 3.86678e-05 0.004 771.471 -2.29963 
262 1 1 0.0460221 -0.00206505 0.00395833 0 0 0 2.31076e-07 -6.43148e-08 -2.26338e-07 -1.22674e-07 -4.61079e-08 1.40534e-07 -1.86164e-05 8.14981e-06 -4.85596e-05 0.004 787.449 -1.56547 
261 1 1 -0.0398214 0.00224601 0.00393476 0 0 0 2.94555e-07 -5.29407e-09 1.06802e-07 -2.99902e-07 -4.56612e-08 -1.77921e-07 -6.09118e-06 3.79602e-05 1.85797e-05 0.004 320.433 1.86307 
666 1 1 -0.00454675 0.000451426 0.00395604 0 0 0 2.91893e-07 -8.481e-08 -7.40349e-07 -3.54899e-07 -1.6518e-07 3.54796e-07 -3.87803e-05 -6.10697e-05 2.23869e-05 0.004 505.023 1.05825 
815 1 1 0.00434368 0.0024356 0.00392711 0 0 0 6.14762e-07 -3.92241e-07 -8.42916e-07 -3.12057e-07 2.89233e-08 2.70899e-07 -4.11005e-05 0.000139966 3.01653e-05 0.004 598.05 -1.11801 
306 1 1 0.01637 0.00247666 0.00395809 0 0 0 5.38763e-07 -6.65401e-07 -8.75821e-07 -3.75474e-07 5.23488e-08 5.51734e-07 0.000174448 0.000115445 8.71017e-05 0.004 702.389 -3.0616 
178 1 1 0.0241042 0.00444176 0.00386114 0 0 0 5.19382e-07 -3.96335e-07 -1.03561e-06 -2.88476e-07 2.78747e-08 6.5834e-07 0.000115314 9.90444e-05 -7.27168e-06 0.004 735.574 -2.8998 
862 1 1 0.0320656 0.00423367 0.00393097 0 0 0 3.74002e-07 -6.15946e-07 -7.39489e-07 -1.59958e-07 1.47708e-07 4.80732e-07 5.62245e-05 -3.63005e-05 -3.44903e-05 0.004 765.535 -2.38941 
661 1 1 0.0398756 0.0029147 0.0039468 0 0 0 3.10833e-07 -2.03071e-07 -4.34448e-07 -1.63993e-07 -5.66391e-08 2.56233e-07 -3.10605e-05 1.43271e-05 7.60185e-05 0.004 781.421 -1.84633 
677 1 1 -0.0453782 0.0078854 0.00393641 0 0 0 1.18403e-07 -1.99292e-08 5.08805e-08 -1.20441e-07 -1.2327e-08 -8.12199e-08 -7.31734e-06 6.89105e-06 2.86586e-06 0.004 314.24 1.64623 
12 1 1 -0.0333161 0.0067196 0.00393696 0 0 0 2.96504e-07 4.26984e-09 -5.94337e-09 -2.94234e-07 -6.4777e-08 -9.17684e-08 -7.65735e-06 1.80783e-05 2.92373e-07 0.004 335.21 2.30008 
420 1 1 -0.0254 0.00664838 0.00392687 0 0 0 3.78099e-07 -2.18901e-09 -1.95117e-07 -3.54132e-07 -1.35566e-07 7.97741e-08 -6.24063e-07 6.81181e-05 -1.11706e-06 0.004 361.96 2.64105 
654 1 1 -0.0175134 0.00720947 0.00387212 0 0 0 4.04273e-07 -4.08191e-10 -5.83569e-07 -3.64532e-07 -2.55962e-07 1.04963e-07 1.71442e-05 8.12386e-05 1.49787e-05 0.004 402.393 2.62382 
145 1 1 -0.00454407 0.00836537 0.00386311 0 0 0 5.19726e-07 -1.16087e-07 -1.03807e-06 -3.04685e-07 -2.19195e-07 3.42074e-07 2.12968e-05 0.000117275 -3.48329e-05 0.004 503.957 1.11039 
624 1 1 0.0451449 0.00890653 0.00390657 0 0 0 3.35164e-07 -9.38581e-08 -2.79496e-07 -1.68164e-07 -7.46968e-08 2.35976e-07 2.86693e-05 6.17351e-05 -4.81174e-05 0.004 785.189 -1.70901 
613 1 1 -0.0372991 0.0135339 0.00384344 0 0 0 2.19303e-07 9.91659e-09 -3.94417e-09 -2.05724e-07 -1.9171e-08 -8.7631e-08 -3.73049e-06 3.92691e-05 -1.01976e-06 0.004 325.263 2.14186 
265 1 1 -0.0293062 0.0135429 0.00396372 0 0 0 2.60446e-07 3.9452e-08 -1.01858e-07 -1.7271e-07 -7.97455e-08 4.10557e-08 -1.70701e-05 2.45876e-05 1.17279e-05 0.004 348.089 2.70308 
273 1 1 -0.0213694 0.0141274 0.00392939 0 0 0 3.26898e-07 5.88151e-08 -3.03961e-07 -1.79418e-07 -1.8876e-07 1.04618e-07 2.12856e-05 4.74252e-05 7.60193e-06 0.004 375.206 2.88251 
492 1 1 -0.01145 0.0123712 0.00398079 0 0 0 4.56491e-07 -1.97173e-08 -6.50638e-07 -1.90447e-07 -2.97784e-07 1.64191e-07 -4.64791e-06 4.53803e-05 -9.01407e-06 0.004 450.546 2.30797 
234 1 1 0.00585285 0.010393 0.0039289 0 0 0 6.97898e-07 -1.41113e-07 -1.0647e-06 -3.32393e-07 -1.44848e-07 4.51301e-07 0.000151231 6.02419e-05 7.95944e-05 0.004 594.017 -0.918192 
160 1 1 0.0142843 0.0106356 0.00390957 0 0 0 7.70744e-07 -1.39184e-07 -1.17461e-06 -2.91443e-07 -2.13069e-07 5.78501e-07 6.56993e-05 0.000114574 -9.82183e-05 0.004 674.159 -2.44535 
484 1 1 0.0220893 0.0120738 0.00390119 0 0 0 4.69583e-07 -2.81921e-07 -9.0728e-07 -1.1273e-07 -1.59287e-07 5.12732e-07 -4.82242e-06 -3.32494e-05 3.32976e-05 0.004 722.459 -2.86671 
743 1 1 0.0300184 0.0126216 0.00398127 0 0 0 3.66877e-07 4.75821e-08 -2.7876e-07 -1.00903e-07 -4.41513e-07 1.04364e-07 8.65107e-06 -2.94071e-05 5.80035e-05 0.004 751.082 -2.70395 
514 1 1 0.0379536 0.0130186 0.00386905 0 0 0 4.95137e-07 -8.56923e-08 -5.60208e-07 -2.1921e-07 -2.27005e-07 3.94847e-07 -1.65456e-05 0.000108913 -0.000109967 0.004 772.61 -2.22742 
530 1 1 -0.0159002 0.0198648 0.00392796 0 0 0 2.86984e-07 1.97133e-07 -5.79847e-07 -1.11793e-07 -2.6989e-07 1.27703e-07 1.34956e-05 0.000115601 2.66847e-05 0.004 404.103 2.83848 
227 1 1 -0.00736503 0.0192084 0.00396595 0 0 0 3.77878e-07 3.03463e-08 -9.87771e-07 -1.52047e-07 -2.27846e-07 2.94158e-07 -2.53213e-05 2.12814e-05 6.06894e-05 0.004 484.974 1.67504 
392 1 1 -0.000498627 0.0151513 0.00394446 0 0 0 5.68683e-07 -6.02292e-08 -9.92787e-07 -2.43368e-07 -1.90357e-07 3.21658e-07 1.22845e-05 -4.54434e-05 -3.01494e-05 0.004 538.262 0.388249 
493 1 1 0.0098584 0.0172531 0.00394647 0 0 0 6.49437e-07 2.46393e-07 -1.05423e-06 -2.28203e-07 -3.86901e-07 4.74397e-07 -0.000120833 4.37133e-05 -1.23457e-05 0.004 632.154 -1.68328 
34 1 1 0.0176357 0.0187852 0.00394099 0 0 0 4.89978e-07 1.23436e-07 -1.1028e-06 -1.24992e-07 -4.99646e-07 6.02612e-07 -6.34836e-05 1.83615e-05 -6.3905e-05 0.004 686.494 -2.53945 
206 1 1 0.0255397 0.0192353 0.00396993 0 0 0 3.47405e-07 -5.06133e-08 -6.63203e-07 -8.06489e-08 -2.81139e-07 4.16976e-07 -4.99724e-05 -0.000111274 -6.43888e-06 0.004 730.358 -2.8657 
104 1 1 0.0334175 0.0199346 0.0038965 0 0 0 5.41313e-07 -4.72947e-08 -5.85106e-07 -2.54532e-07 -2.054e-07 3.6923e-07 -7.41073e-06 0.000124312 2.56476e-06 0.004 756.588 -2.69889 
809 1 1 -0.0412058 0.0204949 0.00395497 0 0 0 8.19962e-08 2.54455e-08 -2.0439e-10 -6.68119e-08 -3.25981e-08 -5.65028e-08 -8.97234e-06 1.16686e-05 1.69006e-05 0.004 320.134 2.09328 
773 1 1 -0.0331523 0.0204531 0.00393522 0 0 0 1.10311e-07 5.85956e-08 -1.75047e-07 -5.24044e-08 -2.02547e-08 6.92915e-09 -1.654e-05 2.47425e-05 1.50874e-05 0.004 339.495 2.76511 
792 1 1 0.00347678 0.0219735 0.00392105 0 0 0 4.71679e-07 2.49981e-07 -8.91226e-07 -1.8499e-07 -2.98049e-07 3.00811e-07 -1.80052e-06 9.78093e-05 8.42293e-05 0.004 579.603 -0.612382 
718 1 1 0.0413199 0.0203659 0.00392989 0 0 0 3.18445e-07 -6.55498e-08 -3.79616e-07 -1.55892e-07 -1.02158e-07 2.2313e-07 3.09663e-05 -1.68583e-05 2.03202e-05 0.004 771.575 -2.38761 
101 1 1 -0.0371146 0.0272995 0.00390402 0 0 0 2.01616e-08 4.25744e-08 -6.67597e-08 -1.76316e-08 -6.10377e-09 -3.7989e-09 -9.39436e-07 1.09277e-05 6.71014e-06 0.004 332.249 2.62502 
246 1 1 -0.0290567 0.0272807 0.00398271 0 0 0 1.60873e-08 1.73143e-09 -1.44336e-07 8.16068e-08 -2.19522e-08 7.54284e-08 2.29943e-05 9.53922e-06 2.31554e-06 0.004 346.888 3.17591 
331 1 1 -0.0212281 0.0257798 0.00390018 0 0 0 1.12614e-07 1.18478e-07 -3.65281e-07 1.0283e-08 -1.63592e-07 1.08229e-07 -3.70586e-05 2.32016e-05 5.12336e-05 0.004 377.691 3.09742 
846 1 1 -0.0134708 0.0274168 0.0039748 0 0 0 7.70044e-08 3.58784e-07 -5.36788e-07 3.36537e-08 -3.19564e-07 2.02063e-07 -3.09268e-05 -2.15339e-05 9.47341e-06 0.004 423.582 2.57238 
348 1 1 -0.00329916 0.0260612 0.00393374 0 0 0 2.15002e-07 1.83216e-07 -8.88158e-07 -1.32267e-07 -2.07971e-07 2.64738e-07 1.83031e-05 -9.21298e-05 -1.2526e-05 0.004 522.81 0.733337 
786 1 1 0.00840353 0.0281551 0.00389684 0 0 0 2.8616e-07 3.04401e-07 -9.83343e-07 -1.22421e-07 -3.31476e-07 3.25976e-07 -5.25804e-05 4.40893e-05 -2.12739e-05 0.004 617.233 -1.54489 
316 1 1 0.0162833 0.0272928 0.0039063 0 0 0 2.38247e-07 2.02631e-07 -7.13764e-07 -6.83895e-08 -4.09189e-07 3.34029e-07 2.57684e-05 -3.34291e-05 -2.90647e-05 0.004 678.56 -2.74434 
495 1 1 0.0288861 0.0264618 0.00396715 0 0 0 4.14406e-07 -5.39683e-08 -5.36689e-07 -1.79726e-07 -1.67336e-07 3.45326e-07 -4.04768e-05 -1.75713e-05 -1.58625e-05 0.004 742.46 -3.05304 
863 1 1 0.0367263 0.0277633 0.00392936 0 0 0 3.02186e-07 -4.07949e-08 -2.58219e-07 -1.56809e-07 -9.61794e-08 1.81826e-07 2.28252e-05 3.32843e-05 3.56675e-05 0.004 762.751 -2.83672 
511 1 1 -0.00761835 0.0327132 0.00388553 0 0 0 8.60019e-08 3.39902e-07 -7.3663e-07 -4.70945e-08 -2.01716e-07 1.84853e-07 -3.82151e-05 5.25575e-05 -7.14187e-06 0.004 492.645 1.37695 
722 1 1 0.00164033 0.0322874 0.00396635 0 0 0 3.04878e-07 3.42153e-07 -7.75384e-07 -1.28147e-07 -2.52655e-07 2.1453e-07 -9.9559e-05 0.000111821 3.12617e-05 0.004 564.485 -0.318164 
2 1 1 0.0229311 0.031696 0.00396243 0 0 0 4.96694e-07 -3.60363e-08 -6.10329e-07 -1.87219e-07 -1.11008e-07 3.42294e-07 4.14134e-05 7.84251e-05 -8.67565e-07 0.004 709.841 -3.288 
254 1 1 0.0305373 0.0343346 0.0039815 0 0 0 0.000481608 -0.000706171 -5.11269e-15 -1.89245e-18 3.26077e-18 6.245e-16 0.176952 0.120681 -0.0211551 0.004 798.547 0 
257 1 1 -0.0296322 0.0352231 0.00395613 0 0 0 -7.85531e-08 4.73549e-08 -1.02e-07 9.98482e-08 1.34757e-08 2.96122e-08 -1.27334e-05 5.75521e-07 4.17293e-06 0.004 350.706 3.42913 
582 1 1 -0.0157655 0.0356206 0.00393205 0 0 0 -3.06462e-07 5.80876e-08 -5.68208e-07 6.94535e-08 -5.42472e-07 3.62203e-09 3.22026e-05 -5.37486e-05 -7.39019e-05 0.004 397.489 3.6239 
255 1 1 -0.00267125 0.038932 0.00391147 0 0 0 2.28988e-07 2.64327e-07 -8.05474e-07 -1.0562e-07 -1.90862e-07 2.12614e-07 -2.85702e-05 4.66397e-05 -1.55129e-05 0.004 524.88 0.669025 
887 1 1 0.00812084 0.0373183 0.00392889 0 0 0 4.08956e-07 4.18391e-07 -6.51902e-07 -1.56976e-07 -2.45422e-07 1.84665e-07 -4.02533e-05 3.08546e-05 -7.31042e-05 0.004 631.892 -2.2369 
719 1 1 0.0157853 0.0351951 0.00398363 0 0 0 2.46213e-07 8.68218e-08 -3.52584e-07 -1.17522e-07 -1.63931e-07 2.17062e-07 3.49824e-05 -3.26887e-05 2.19652e-05 0.004 678.305 -3.0614 
21 1 1 0.0234243 0.0396338 0.00391497 0 0 0 1.60114e-07 1.70867e-08 -2.14431e-07 -7.62117e-08 -8.10451e-08 1.08035e-07 1.95964e-05 2.13386e-05 4.45932e-05 0.004 711.582 -3.50804 
325 1 1 -0.0222388 0.0402984 0.00393951 0 0 0 -1.15044e-07 1.1071e-07 -2.57361e-07 1.15177e-07 -1.03439e-07 9.61682e-08 1.37412e-05 -8.20843e-06 -1.72364e-05 0.004 386.051 3.73578 
595 1 1 -0.014931 0.0435393 0.00398254 0 0 0 5.22606e-08 -1.04129e-08 -1.51228e-07 1.61956e-07 -1.61848e-07 1.49842e-07 3.57021e-05 1.83108e-05 -2.06332e-06 0.004 420.267 3.37701 
568 1 1 0.0162912 0.0430934 0.00392629 0 0 0 1.62333e-07 1.19578e-07 -2.26445e-07 -6.18877e-08 -9.50281e-08 7.2109e-08 -1.98426e-05 -8.41613e-06 -3.71862e-05 0.004 675.103 -3.04313 
387 1 1 -0.00719691 0.045487 0.00389932 0 0 0 1.62407e-07 1.54552e-07 -3.99576e-07 -2.50472e-08 -6.79312e-08 1.13068e-07 3.11779e-05 4.56564e-05 2.3318e-05 0.004 496.12 1.48166 
852 1 1 0.000758888 0.0460615 0.00397617 0 0 0 1.49818e-07 5.1323e-08 -3.52097e-07 -4.02054e-08 -5.74061e-08 1.18222e-07 8.64991e-05 -2.63777e-05 1.11641e-05 0.004 554.283 -0.114438 
157 1 1 0.00865318 0.0452492 0.00389824 0 0 0 2.88103e-07 2.63141e-07 -3.99109e-07 -1.09436e-07 -1.32014e-07 1.26762e-07 -5.97662e-08 3.05035e-05 4.8345e-05 0.004 623.278 -1.95477 
400 1 1 -0.024752 -0.0387964 0.00974418 0 0 0 -4.15762e-08 2.46719e-08 9.95166e-08 -5.01332e-08 7.16783e-08 1.91064e-07 2.61193e-06 5.40072e-05 -2.32736e-05 0.004 381.379 3.61063 
606 1 1 -0.000653936 -0.0387266 0.00813891 0 0 0 -3.53588e-07 -3.80246e-07 -3.56543e-07 -1.24746e-07 3.2383e-07 5.02177e-07 3.71338e-06 -8.80221e-06 -1.43277e-05 0.004 549.314 0.179428 
724 1 1 -0.0339144 -0.0311598 0.00984801 0 0 0 1.0655e-07 9.18382e-08 1.68549e-07 -1.01864e-07 -1.69208e-08 8.52136e-08 -8.82367e-06 4.25787e-06 -1.00752e-06 0.004 343.304 2.93263 
183 1 1 0.0251947 -0.0311656 0.00751474 0 0 0 -5.47852e-08 -4.06961e-07 -6.6887e-07 -2.1053e-07 1.45608e-07 3.67319e-07 -9.66637e-05 9.37452e-06 7.1577e-07 0.004 718.616 -3.33624 
544 1 1 -0.0140217 -0.0253028 0.00874963 0 0 0 -2.31526e-07 -3.4383e-07 4.42833e-08 -5.85268e-07 1.61201e-07 8.29628e-07 -1.22147e-05 4.80006e-05 -2.32742e-05 0.004 429.784 2.6226 
29 1 1 -0.00450628 -0.0263793 0.00900727 0 0 0 -4.06117e-07 -5.04809e-07 -3.9982e-07 -5.95097e-07 3.86283e-07 1.02398e-06 1.53153e-05 5.12552e-05 -4.85678e-05 0.004 503.154 1.223 
248 1 1 0.00349901 -0.0278426 0.00763307 0 0 0 -2.72826e-07 -5.16809e-07 -6.19457e-07 -2.99523e-07 2.98241e-07 5.7461e-07 -0.000102592 1.8068e-07 1.3357e-05 0.004 583.293 -0.855433 
79 1 1 0.035837 -0.0289489 0.00959646 0 0 0 1.1328e-08 -2.29299e-07 -3.51338e-07 -1.80771e-07 1.7943e-07 1.66995e-07 -6.60884e-06 -7.04265e-05 3.63462e-05 0.004 753.106 -3.02879 
291 1 1 -0.0045887 -0.0173975 0.00909522 0 0 0 -1.67167e-07 -4.5798e-07 -6.16102e-07 -9.17738e-07 2.7421e-07 8.03294e-07 -3.06853e-05 3.1678e-05 -1.3874e-06 0.004 511.761 0.861927 
891 1 1 0.0037349 -0.015528 0.00632507 0 0 0 -6.39368e-08 -6.65036e-07 -9.44565e-07 -5.2752e-07 1.72148e-08 7.63009e-07 -0.000131339 1.49829e-05 -6.525e-05 0.004 582.845 -0.777747 
870 1 1 0.0138323 -0.0156364 0.00831016 0 0 0 2.48752e-07 -8.61282e-07 -1.61309e-06 -7.09795e-07 1.85511e-07 8.22212e-07 -9.91367e-06 -3.03026e-05 4.26406e-06 0.004 665.409 -2.47123 
777 1 1 0.034969 -0.018778 0.00771 0 0 0 1.18926e-07 -3.9314e-07 -4.85567e-07 -1.34382e-07 2.79006e-07 2.1383e-07 -0.00013789 6.51969e-05 -6.17123e-06 0.004 765.684 -2.64729 
837 1 1 -0.029449 -0.0146727 0.00803326 0 0 0 3.47969e-07 8.84728e-09 2.42895e-07 -4.29776e-07 -1.22974e-07 1.06172e-07 -2.76488e-05 3.58603e-05 -1.45202e-05 0.004 344.739 2.59045 
445 1 1 -0.0181359 -0.0138493 0.00995275 0 0 0 3.52619e-07 -3.14666e-07 -1.27036e-07 -1.27363e-06 -3.30427e-07 8.38444e-07 -2.35383e-05 1.42586e-05 -9.59993e-05 0.004 399.393 2.69211 
783 1 1 0.004859 -0.00860658 0.00993767 0 0 0 7.02643e-07 -8.73626e-07 -1.73546e-06 -9.9454e-07 3.06625e-08 1.0042e-06 2.97024e-05 3.52363e-05 -0.000128286 0.004 595.158 -1.03364 
615 1 1 -0.0350999 -0.000758714 0.00955182 0 0 0 7.25623e-07 8.35213e-08 1.45225e-07 -7.12409e-07 -1.73274e-07 -2.20878e-07 -1.95142e-05 2.22831e-05 -1.13534e-05 0.004 326.977 2.04661 
476 1 1 -0.0459521 0.00262139 0.00988978 0 0 0 2.40731e-07 3.02828e-09 1.0404e-07 -2.26784e-07 -2.42724e-08 -1.56005e-07 -2.63424e-05 9.6769e-07 1.14317e-05 0.004 311.944 1.49878 
16 1 1 -0.0210456 0.00169438 0.00830926 0 0 0 7.83025e-07 -2.47821e-08 -5.6271e-07 -7.32464e-07 -3.41574e-07 2.44764e-07 -1.26586e-05 8.57739e-05 -3.12516e-05 0.004 380.282 2.68474 
303 1 1 0.0459492 0.00350463 0.00962656 0 0 0 3.43619e-07 -2.92464e-07 -5.82684e-07 -1.96839e-07 -4.77025e-08 4.00319e-07 2.61029e-05 -0.000120108 6.23004e-05 0.004 786.261 -1.6278 
523 1 1 -0.0389797 0.0080308 0.00932861 0 0 0 4.68045e-07 7.05039e-08 5.13987e-08 -5.27807e-07 -1.06904e-07 -2.80954e-07 -2.42019e-05 3.39868e-05 1.54129e-05 0.004 321.069 1.90743 
704 1 1 -0.010798 0.00519222 0.00743859 0 0 0 7.88341e-07 -1.098e-07 -1.36174e-06 -6.28361e-07 -3.45302e-07 4.24255e-07 7.34365e-05 6.17148e-05 -4.11283e-06 0.004 449.282 2.09917 
454 1 1 0.00101181 0.00715932 0.00933955 0 0 0 1.18596e-06 -8.21623e-08 -2.00592e-06 -6.88006e-07 -4.7678e-07 7.892e-07 -0.000218022 3.85273e-05 -8.29699e-05 0.004 554.165 -0.0659082 
31 1 1 0.0102165 0.0054759 0.00832589 0 0 0 1.29485e-06 -5.38368e-07 -2.39901e-06 -7.38459e-07 -1.92543e-07 1.09335e-06 0.000111657 9.74118e-05 4.63324e-06 0.004 636.694 -1.85022 
135 1 1 0.0188886 0.00749169 0.00960783 0 0 0 1.39514e-06 -5.36231e-07 -1.7716e-06 -7.06664e-07 -6.07746e-08 1.0407e-06 -0.000123225 0.000282173 -2.15827e-05 0.004 714.163 -3.06128 
712 1 1 0.0281139 0.00743266 0.00998854 0 0 0 1.22373e-06 -1.88857e-07 -2.05824e-06 -5.33285e-07 -3.85499e-07 1.42335e-06 -0.000266147 8.8823e-05 -6.97935e-05 0.004 748.892 -2.74328 
210 1 1 0.0394934 0.00814607 0.00989879 0 0 0 8.84417e-07 -3.46892e-07 -1.00594e-06 -4.54711e-07 -1.7427e-07 7.50342e-07 5.86304e-05 0.000123981 -2.03926e-05 0.004 779.569 -1.94781 
651 1 1 -0.0437987 0.0143398 0.00823566 0 0 0 1.83569e-07 3.19912e-08 2.99508e-08 -1.66257e-07 -7.66041e-09 -1.26422e-07 -5.71635e-06 8.82062e-08 7.73574e-06 0.004 317.52 1.85942 
621 1 1 0.0437182 0.0147846 0.00900765 0 0 0 5.52423e-07 -1.76984e-07 -5.37839e-07 -2.70494e-07 -8.51775e-08 3.79923e-07 2.3339e-05 -8.56324e-05 6.27965e-05 0.004 777.757 -2.05993 
726 1 1 -0.0257657 0.0199972 0.00692824 0 0 0 2.58144e-07 1.38445e-07 -3.21492e-07 -9.9694e-08 -1.35073e-07 9.0196e-08 -4.86661e-05 -3.96481e-05 -1.03828e-05 0.004 358.474 2.97252 
230 1 1 -0.00847466 0.024595 0.00973775 0 0 0 5.12956e-07 6.85597e-07 -1.98349e-06 -2.9419e-07 -6.37384e-07 6.56065e-07 -0.000202654 0.000113005 6.79937e-07 0.004 484.283 1.5594 
320 1 1 -0.00171265 0.020405 0.00979385 0 0 0 7.93865e-07 5.01743e-07 -2.1204e-06 -3.58052e-07 -5.26222e-07 6.54098e-07 -0.000176557 -9.17413e-06 -5.26297e-05 0.004 535.878 0.44915 
7 1 1 0.0129211 0.0224303 0.00918517 0 0 0 9.65877e-07 3.0317e-07 -1.83042e-06 -3.54645e-07 -6.51909e-07 8.60939e-07 5.5606e-05 0.000118531 0.000109149 0.004 658.599 -2.30071 
83 1 1 0.0214164 0.0239651 0.00888425 0 0 0 7.04986e-07 -1.757e-08 -1.46269e-06 -3.12653e-07 -5.37467e-07 8.10715e-07 0.000114294 0.000218876 5.96049e-05 0.004 717.77 -3.00608 
747 1 1 -0.0337321 0.0313835 0.00974072 0 0 0 5.13889e-08 1.35972e-07 -1.57031e-07 2.90011e-08 2.01658e-08 -6.80745e-08 1.61598e-06 3.63147e-05 3.18182e-05 0.004 346.021 2.99205 
51 1 1 -0.0226192 0.0329654 0.00703451 0 0 0 -1.06125e-07 1.74988e-07 -5.50892e-07 9.82891e-08 -1.32201e-07 6.60702e-08 1.30428e-05 7.19028e-05 2.40022e-05 0.004 370.563 3.53087 
116 1 1 -0.00940735 0.0391203 0.00809817 0 0 0 1.97551e-07 5.52175e-07 -1.08843e-06 -5.11661e-08 -2.72788e-07 2.90258e-07 -9.08787e-06 -5.44408e-05 -1.65072e-05 0.004 485.932 1.65349 
205 1 1 -0.000560454 -0.0460776 0.0110171 0 0 0 -2.46065e-07 -2.06083e-07 -2.08309e-07 -7.09258e-08 2.36385e-07 3.14886e-07 -5.13e-05 -1.53689e-05 4.5489e-05 0.004 550.589 0.189015 
836 1 1 0.00737986 -0.0454688 0.0106611 0 0 0 -1.99476e-07 -2.27206e-07 -2.66203e-07 -7.8111e-08 1.8304e-07 2.71942e-07 -3.28946e-05 1.33267e-05 2.17349e-05 0.004 596.211 -1.22903 
486 1 1 -0.0156916 -0.0402432 0.0103352 0 0 0 -3.14281e-07 -1.47128e-07 2.40442e-08 -1.00948e-07 1.58231e-07 2.89212e-07 -1.08303e-05 2.67345e-06 -2.84984e-05 0.004 424.996 3.25527 
311 1 1 -0.0083681 -0.0439882 0.0106791 0 0 0 -3.30662e-07 -2.59341e-07 -1.67499e-07 -1.49222e-07 2.8558e-07 4.48329e-07 5.09505e-05 -5.04108e-05 1.62852e-05 0.004 476.268 2.86067 
447 1 1 0.0180551 -0.0423881 0.0118323 0 0 0 -1.43483e-07 -1.94717e-07 -1.74418e-07 -1.02287e-07 1.70841e-07 2.76587e-07 -1.97152e-05 -4.97595e-05 3.17328e-05 0.004 661.541 -2.87076 
538 1 1 -0.0295743 -0.035351 0.0149849 0 0 0 5.68097e-08 1.00225e-07 3.09413e-07 -2.30898e-07 1.76464e-08 2.61833e-07 2.54977e-05 -4.21973e-05 3.7289e-06 0.004 358.926 3.24713 
279 1 1 0.011155 -0.0385417 0.0114152 0 0 0 -3.14195e-07 -4.61127e-07 -5.44544e-07 -2.30501e-07 3.32541e-07 6.56619e-07 1.92171e-05 -3.94968e-05 1.68328e-05 0.004 627.824 -2.02449 
110 1 1 0.0250464 -0.0386627 0.0117241 0 0 0 -9.1372e-08 -2.18985e-07 -2.99917e-07 -1.74927e-07 1.36181e-07 2.30361e-07 -5.60772e-05 2.26436e-05 -4.02195e-06 0.004 699.843 -3.37034 
188 1 1 -0.0179041 -0.0321007 0.0101564 0 0 0 -2.42384e-07 -1.62701e-07 2.58911e-07 -4.14986e-07 1.66931e-07 6.70326e-07 8.51925e-06 8.26365e-06 -6.27651e-06 0.004 410.349 3.01134 
810 1 1 -0.0102601 -0.034451 0.0102036 0 0 0 -3.4731e-07 -3.20675e-07 -4.48232e-08 -3.0193e-07 3.71034e-07 7.88953e-07 4.05969e-06 2.6562e-06 -1.25054e-05 0.004 461.34 2.29418 
412 1 1 -0.00316744 -0.0328806 0.0133526 0 0 0 -4.10263e-07 -5.45686e-07 -4.29845e-07 -4.98249e-07 6.11136e-07 1.32388e-06 -7.46012e-06 5.07273e-05 -1.89208e-05 0.004 514.253 0.990641 