ITEM: TIMESTEP
12000
ITEM: NUMBER OF ATOMS
891
ITEM: BOX BOUNDS mm mm mm
-0.05 0.05
-0.05 0.05
0 0.15
ITEM: ATOMS id type type x y z ix iy iz vx vy vz fx fy fz omegax omegay omegaz radius f_Temp[0] f_heatFlux[0] 
199 1 1 -0.00444387 -0.0458163 0.00397361 0 0 0 -0.000129781 5.04625e-05 3.57623e-06 -0.000112846 -0.000250711 -9.59701e-05 0.00111537 -0.036801 0.0496901 0.004 300 0 
873 1 1 -0.0201503 -0.0414791 0.00390192 0 0 0 0.00024722 -2.26353e-06 8.71692e-06 -0.000279603 0.000221836 -0.00028041 0.0179917 0.0716429 -0.0463647 0.004 300 0 
485 1 1 -0.0126803 -0.0442534 0.00397347 0 0 0 3.57947e-05 -1.83433e-05 -0.000151108 -0.000194246 0.000118881 -0.000210485 -0.0137777 -0.0135936 0.0371666 0.004 300 0 
850 1 1 0.00335592 -0.0441748 0.00393986 0 0 0 -4.57425e-05 -0.000178321 0.000171013 -0.000182028 -0.000267523 0.000586561 0.0360199 0.00926908 -0.129475 0.004 300 0 
186 1 1 0.0114405 -0.0445992 0.00392647 0 0 0 -3.19878e-05 0.000111672 0.000160728 0.000109233 -2.07069e-05 0.000129468 0.0105282 -0.012444 0.0305142 0.004 300 0 
560 1 1 0.018969 -0.0420004 0.00394636 0 0 0 -2.74746e-05 0.00020339 3.4473e-05 0.000198136 -6.22424e-05 2.06629e-05 -0.0626159 0.0882477 -0.0141746 0.004 300 0 
102 1 1 -0.0147512 -0.035733 0.00386276 0 0 0 0.000288947 0.000114837 -6.96647e-05 -0.000240013 0.000264097 -0.000216704 0.0142932 0.0518339 0.0890141 0.004 300 0 
88 1 1 -0.00730802 -0.0383851 0.00392717 0 0 0 0.000170795 5.58228e-05 -6.20923e-05 -7.82025e-05 -0.000100657 -1.66963e-05 -0.0101537 -0.0105347 -0.0995097 0.004 300 0 
776 1 1 0.00520321 -0.0354369 0.00394996 0 0 0 4.48438e-05 0.000237837 0.00035914 3.31213e-06 -0.00084695 -0.000439182 -0.0807864 0.0299912 0.0864945 0.004 300 0 
410 1 1 0.0130237 -0.0368129 0.00392461 0 0 0 -0.000110425 0.000337108 0.000275223 0.000191685 -2.959e-05 -2.90579e-05 -0.000704557 -0.0231501 -0.00846325 0.004 300 0 
282 1 1 0.0258764 -0.0381315 0.00388535 0 0 0 -0.000374654 1.54059e-05 8.24595e-06 8.08203e-05 -0.000184232 9.24851e-05 0.0307842 -0.13665 0.0309803 0.004 300 0 
682 1 1 -0.0302004 -0.0348796 0.00393563 0 0 0 7.77097e-05 0.000106687 -2.30503e-05 0.000180257 -2.79661e-05 0.000331882 -0.0239138 -0.0175723 0.00828092 0.004 300 0 
251 1 1 -0.0224177 -0.0338476 0.00392728 0 0 0 0.000260045 -7.37034e-06 4.03577e-05 -0.000126041 0.000355397 -0.000102893 -0.0021539 0.0186788 -0.0788092 0.004 300 0 
770 1 1 -0.00204777 -0.0321412 0.00393907 0 0 0 7.95629e-05 -0.000151038 2.68659e-06 0.000535497 -0.000546808 -0.000468923 -0.046744 -0.0208307 0.0141498 0.004 300 0 
883 1 1 0.0181659 -0.0307531 0.00390044 0 0 0 -0.000354211 0.00053753 0.000392718 -0.000137666 -0.000441296 0.00027135 -0.125046 -0.095065 0.0410725 0.004 300 0 
838 1 1 0.0320345 -0.0331079 0.00396281 0 0 0 -0.000236721 -0.000183508 0.000234003 0.0001808 -4.84594e-05 -0.000145107 0.0285586 0.0336686 0.00431653 0.004 300 0 
617 1 1 -0.0372522 -0.0271245 0.00391597 0 0 0 0.000182959 0.000132258 3.1817e-05 0.000326433 -0.000296714 0.000152767 -0.00803741 0.00292025 -0.00214611 0.004 300 0 
824 1 1 -0.0292964 -0.0270334 0.00392961 0 0 0 0.000371165 8.68234e-05 -0.000140203 0.000156889 -6.92621e-05 -0.000279426 -0.0216436 0.0882628 -0.0389073 0.004 300 0 
571 1 1 -0.0202617 -0.0262214 0.00393524 0 0 0 0.000989083 -0.000147642 -0.000117723 0.000384677 -0.000229113 -0.000581559 -0.0205207 0.183532 -0.0196336 0.004 300 0 
861 1 1 -0.0095937 -0.0297295 0.00389783 0 0 0 0.00050963 0.00016116 -0.000105363 0.000620213 -0.000170425 -0.000501879 0.00916006 0.0681905 -0.1206 0.004 300 0 
434 1 1 0.0103441 -0.0293808 0.00393651 0 0 0 -0.000137265 0.000552692 6.28154e-05 8.0474e-05 -0.000332975 -0.000269011 -0.0512311 -0.0143776 -0.0119656 0.004 300 0 
103 1 1 0.0311542 -0.0252339 0.00394353 0 0 0 -1.04302e-06 -0.000406023 0.0004968 6.59323e-06 -3.6096e-05 -0.000329198 0.105727 0.024991 -0.0197379 0.004 300 0 
769 1 1 -0.0413427 -0.0202838 0.00398242 0 0 0 0.000234493 -3.3019e-05 6.02276e-05 0.000214098 -0.000238528 0.000320209 0.0323043 0.000907105 -0.0194958 0.004 300 0 
94 1 1 -0.0333725 -0.0202234 0.0039392 0 0 0 0.000594441 0.000132872 -1.56598e-05 0.000175737 -7.35748e-06 0.000107643 -0.0177789 0.0690558 -0.0347138 0.004 300 0 
40 1 1 -0.0254012 -0.0201442 0.00391597 0 0 0 0.000713409 -0.000187359 -8.34824e-05 0.000190282 -0.000385691 3.02581e-05 0.0855779 0.0919587 -0.0297155 0.004 300 0 
19 1 1 -0.00864898 -0.0218807 0.00394085 0 0 0 0.000455193 0.000152283 -0.000193601 0.000780763 -0.000160696 -0.000635375 -0.0481283 0.0610676 0.115492 0.004 300 0 
442 1 1 -0.00043641 -0.0218512 0.0039353 0 0 0 0.000279419 0.000338827 -0.000142132 0.00115562 -0.00122248 -0.00070498 -0.132842 0.0661225 0.0189095 0.004 300 0 
259 1 1 0.00753096 -0.0219988 0.00392329 0 0 0 0.000136085 0.000458945 -0.000294176 0.000577546 -0.000271777 7.65003e-05 -0.113337 0.0594124 -0.00742764 0.004 300 0 
512 1 1 0.015387 -0.0232377 0.00397785 0 0 0 -0.00026132 0.00101503 -9.59371e-05 0.000305601 -0.000698396 -0.000330733 -0.169844 -0.141862 0.0454579 0.004 300 0 
470 1 1 0.0232603 -0.0243638 0.00390917 0 0 0 -0.000221936 4.6855e-05 0.00032912 -0.000412421 -0.000700755 -0.000149067 -0.191013 -0.0327371 -0.0371498 0.004 300 0 
451 1 1 0.0390284 -0.0244852 0.0039226 0 0 0 0.000202064 -0.000188207 4.15786e-05 -9.8088e-05 3.18407e-05 -0.000115629 0.0219969 0.0642799 0.0592948 0.004 300 0 
531 1 1 -0.01646 -0.019201 0.00396127 0 0 0 0.000869695 -0.000209001 -0.00026685 -0.000185614 -0.000181575 -0.00102928 0.0997299 0.183868 0.0891456 0.004 300 0 
229 1 1 0.0201975 -0.0169111 0.00386837 0 0 0 0.00146365 -0.000270534 -0.00035535 0.000525248 -0.000528123 -0.000108356 0.00704894 -0.186486 0.113851 0.004 300 0 
734 1 1 0.0280423 -0.0179479 0.00394176 0 0 0 0.00235378 0.000425951 0.000719702 -0.000933031 -0.000559831 6.70419e-05 -0.219415 0.571943 0.197231 0.004 300 0 
635 1 1 0.0425979 -0.0174469 0.00392261 0 0 0 7.42121e-06 9.87865e-05 -0.000108418 -0.000200321 0.000241796 -3.2613e-05 -0.0436919 -0.00275919 0.00895147 0.004 300 0 
87 1 1 -0.0448195 -0.0104735 0.00391357 0 0 0 7.23188e-05 0.000165517 0.000109187 -0.00011285 0.000391707 0.000237093 -0.0936112 0.00147417 -0.0598651 0.004 300 0 
406 1 1 -0.0373911 -0.0133924 0.00396121 0 0 0 0.000195545 5.3812e-07 -6.63116e-05 0.000924864 0.000172189 0.00044507 -0.0282965 0.0996489 0.0601543 0.004 300 0 
224 1 1 -0.0230601 -0.0125992 0.00387908 0 0 0 0.000450952 1.92308e-06 9.30416e-05 0.000525055 -0.000415831 -0.000438956 0.0118248 0.0727863 0.0794067 0.004 300 0 
751 1 1 -0.0102996 -0.0141558 0.0039695 0 0 0 6.64434e-05 -2.00133e-05 -0.000160932 -0.000268603 -7.21256e-05 -0.000558699 0.0698324 0.0164811 0.0214914 0.004 300 0 
622 1 1 -0.00273417 -0.0117425 0.00388555 0 0 0 5.48783e-05 -5.08265e-05 -0.000287375 0.000562846 -0.000549828 -0.00024597 0.0745697 0.0299664 -0.0184293 0.004 300 0 
128 1 1 0.00951463 -0.0106888 0.00388277 0 0 0 3.51662e-05 -2.51702e-06 -0.000413479 0.000565794 -2.05761e-05 -0.000389956 0.00300447 -0.00758036 -0.126466 0.004 300 0 
68 1 1 0.0263024 -0.0102122 0.00395766 0 0 0 0.000529198 -1.89548e-05 -0.000205868 -0.000584218 -0.000145891 0.000444048 -0.0744178 0.0575683 0.210239 0.004 300 0 
791 1 1 0.0342121 -0.0119043 0.00392929 0 0 0 -0.0230173 0.00719799 -0.00111717 0.00268969 -0.00235889 0.000530142 -1.75003 -5.77196 -0.43734 0.004 300 0 
354 1 1 -0.0380866 -0.00550458 0.0039206 0 0 0 0.000142269 8.94129e-06 3.14543e-05 0.000417362 -0.000107108 0.000650319 0.00632854 0.00355281 -0.085316 0.004 300 0 
725 1 1 -0.0305038 -0.00799185 0.00392152 0 0 0 0.000437673 5.30031e-05 4.46228e-05 0.00107736 0.000569542 5.62647e-05 0.00429523 0.0698331 0.213644 0.004 300 0 
353 1 1 -0.0161283 -0.0087977 0.00391153 0 0 0 0.000159016 0.000283239 -0.000192924 -0.000170862 -0.000165615 -0.000373423 -0.118211 0.0416309 -0.0571279 0.004 300 0 
391 1 1 -0.00857532 -0.00640043 0.00391379 0 0 0 -4.48043e-05 -1.96503e-05 -0.00033638 9.06211e-05 -0.000224103 0.000673302 -0.0593975 -0.0542597 0.0034631 0.004 300 0 
683 1 1 0.017357 -0.009452 0.00390944 0 0 0 0.00030268 -0.000453467 -0.000518329 0.000168155 -0.000177933 0.00030585 0.0724549 0.0246309 0.0880184 0.004 300 0 
690 1 1 0.038561 -0.00519113 0.00389915 0 0 0 -0.00117973 -0.00242059 -4.43682e-05 -0.000108905 -7.54777e-05 0.000266184 0.0492813 -0.051795 -0.509315 0.004 300 0 
10 1 1 0.0449629 -0.00990738 0.00397379 0 0 0 0.000100635 8.41873e-05 -0.000283041 0.000354984 0.000238925 -5.30992e-05 -0.040327 -0.02916 -0.0243021 0.004 300 0 
402 1 1 -0.0460147 -0.00264763 0.0039231 0 0 0 3.30698e-05 2.04074e-05 -4.64752e-05 -0.000207578 -0.000364932 0.000139557 -0.00274429 0.0138979 0.0261731 0.004 300 0 
761 1 1 -0.0294695 -0.000163186 0.00392765 0 0 0 -0.000283535 0.000180692 -4.89133e-05 2.20948e-05 0.000204917 -0.000435516 -0.0618678 -0.0289702 -0.023921 0.004 300 0 
293 1 1 -0.0229273 -0.00466458 0.00396036 0 0 0 -0.000114832 0.000184199 0.000102009 -0.000189902 -0.000179551 -0.000175852 0.0115569 0.0086554 0.0871838 0.004 300 0 
384 1 1 -0.0147598 -0.000844742 0.0039815 0 0 0 0.002465 -0.00274154 3.67987e-05 -2.48868e-06 -1.44571e-05 -2.18768e-05 0.689368 0.616459 0.86221 0.004 300 0 
378 1 1 0.00131122 -0.00490954 0.00392802 0 0 0 5.71503e-05 0.000158359 -7.2721e-05 0.00092882 -0.000574002 5.92127e-05 -0.0394937 0.0384866 0.0884422 0.004 300 0 
390 1 1 0.0103748 -0.00276984 0.00396738 0 0 0 1.85958e-05 2.29343e-05 -0.000275616 -0.000145899 6.44287e-05 0.000147985 0.0449055 -0.00261284 0.0872608 0.004 300 0 
411 1 1 0.0223752 -0.00329738 0.00397686 0 0 0 8.20311e-05 -4.51899e-05 -0.000556084 -0.000341949 0.000113501 0.000903555 -0.0500425 -0.0289715 -0.0651502 0.004 300 0 
342 1 1 0.0307424 -0.00361233 0.00397499 0 0 0 -5.8218e-05 -4.10282e-05 -0.000733283 -0.0010139 -0.000660897 0.000334571 -0.0505156 -0.0174815 -0.0468956 0.004 300 0 
262 1 1 0.0460225 -0.00206402 0.00395865 0 0 0 0.000132362 6.69343e-05 -0.000224966 -7.44683e-05 -0.000221895 1.42119e-05 0.032212 -0.0373592 -0.030696 0.004 300 0 
261 1 1 -0.0398217 0.00224732 0.00393579 0 0 0 -0.000127999 -1.05717e-05 -7.4749e-05 -0.000156103 -0.000142033 0.000247697 -0.0479363 -0.0392348 0.0109909 0.004 300 0 
666 1 1 -0.00454074 0.000446339 0.00395562 0 0 0 -6.85022e-06 -0.000109179 -0.000357912 0.000680113 -0.000795006 0.00024335 -0.0224439 -0.0195733 0.00282119 0.004 300 0 
815 1 1 0.00434766 0.00243038 0.00392998 0 0 0 -2.15218e-05 0.000175007 -0.000225212 -0.000121325 -0.000222057 6.15861e-05 -0.0399091 0.0152701 -0.0908188 0.004 300 0 
306 1 1 0.0163722 0.00247415 0.00395796 0 0 0 0.000340707 0.00016999 -0.000208433 -0.000154468 0.000397686 0.000445291 -0.0890804 0.111367 -0.064004 0.004 300 0 
178 1 1 0.0241057 0.00444024 0.00386278 0 0 0 0.000182725 0.000249405 -0.000595284 -0.000436537 0.000175922 0.000749647 -0.00465724 0.0299978 0.0666671 0.004 300 0 
862 1 1 0.032066 0.00423727 0.00393222 0 0 0 0.000155234 1.32425e-05 -0.000780866 -0.00052867 0.00042432 0.000166388 0.0112125 -0.0313086 -0.0769327 0.004 300 0 
661 1 1 0.0398753 0.00291448 0.0039478 0 0 0 8.96442e-05 6.75024e-05 -0.000274819 -0.000544606 -0.000641572 9.87558e-05 -0.0425984 -0.0119524 0.0945886 0.004 300 0 
677 1 1 -0.0453768 0.00788884 0.00393603 0 0 0 3.84614e-05 -4.70849e-05 -8.74927e-05 -0.000173659 -0.000465584 -0.000220916 0.0635315 0.0214078 -0.0143834 0.004 300 0 
12 1 1 -0.0333153 0.00672067 0.00393786 0 0 0 -0.000319478 3.95988e-05 -0.000147721 0.000131435 0.000299518 8.22851e-05 0.04763 -0.047002 -0.00126317 0.004 300 0 
420 1 1 -0.0253961 0.00664983 0.00392862 0 0 0 -0.000302717 0.000118408 -0.000108384 0.000284635 -0.000331669 -2.94312e-05 -0.0126422 -0.0223342 0.032357 0.004 300 0 
654 1 1 -0.0175109 0.00721299 0.00387469 0 0 0 -0.000121989 -0.000288318 -0.000431247 0.00041008 -0.000562489 -0.000168397 0.0749553 0.0173286 -0.182069 0.004 300 0 
145 1 1 -0.00454159 0.00836049 0.00386151 0 0 0 0.000133454 -0.000161682 -0.000227212 0.000387765 -0.000375319 0.000554206 0.0927948 -0.072204 -0.0947827 0.004 300 0 
624 1 1 0.0451448 0.00890573 0.00390658 0 0 0 -1.30936e-05 3.53236e-05 -3.48731e-05 -0.00025149 -2.02278e-05 -0.000261867 0.00459332 -0.0103785 -0.0753063 0.004 300 0 
613 1 1 -0.0372988 0.0135338 0.00384802 0 0 0 -0.000140277 0.000108237 -2.52025e-05 3.18834e-05 -0.000145417 2.23978e-05 -0.0107449 -0.0346985 -0.0239134 0.004 300 0 
265 1 1 -0.0293046 0.0135424 0.00396506 0 0 0 -0.000105235 5.44354e-05 2.13713e-05 0.000403912 0.000131622 -7.20465e-05 -0.00251835 0.0380527 -0.0487411 0.004 300 0 
273 1 1 -0.0213682 0.0141274 0.00393114 0 0 0 4.46758e-05 -2.08517e-05 -0.000180238 0.00040358 -0.0002207 0.000192665 0.0430762 0.00277824 0.0783711 0.004 300 0 
492 1 1 -0.0114433 0.0123665 0.00397826 0 0 0 0.000278357 -0.000282601 -0.00016693 0.000212203 0.00021672 -0.000172788 0.0871891 0.0995429 0.143975 0.004 300 0 
234 1 1 0.0058586 0.0103862 0.00392844 0 0 0 0.000136801 0.000246618 -6.145e-05 -0.000159107 -2.82625e-05 0.000353754 -0.00789227 -0.00231066 -0.0943489 0.004 300 0 
160 1 1 0.014285 0.0106367 0.00391261 0 0 0 0.000222595 -2.54348e-05 -0.000124522 -0.000306711 0.000162606 0.000294953 0.0503019 0.0267999 0.0243518 0.004 300 0 
484 1 1 0.0220902 0.012073 0.00390288 0 0 0 0.000179078 0.00025024 -0.000322557 -0.00026372 2.07235e-05 0.000475588 -0.0103483 0.0588188 -0.0151579 0.004 300 0 
743 1 1 0.0300197 0.0126218 0.00398067 0 0 0 0.000110429 1.89437e-06 -0.000104996 -0.000861079 0.000161213 0.000396588 0.067003 -0.0610656 0.0721354 0.004 300 0 
514 1 1 0.0379554 0.0130178 0.00386938 0 0 0 0.000209065 0.000231828 3.6432e-05 -0.000758403 0.000158552 -0.000225099 -0.0365454 0.0391405 0.00615144 0.004 300 0 
530 1 1 -0.0158958 0.0198625 0.00392555 0 0 0 -0.000154888 9.06472e-05 -6.10805e-05 -0.000218592 0.000661073 0.000478074 0.016833 -0.0268075 -0.0838497 0.004 300 0 
227 1 1 -0.00735715 0.0192012 0.00396455 0 0 0 3.4903e-05 9.30206e-05 -0.000147839 4.53821e-05 0.000517813 0.000535223 -0.0506746 -0.0269035 -0.0352841 0.004 300 0 
392 1 1 -0.000492854 0.0151397 0.0039415 0 0 0 0.000209045 0.00014909 0.000103005 0.000104549 -0.000434642 0.000537974 -0.019746 0.0464115 0.114804 0.004 300 0 
493 1 1 0.00985616 0.0172517 0.00394644 0 0 0 0.000230069 4.88706e-05 0.00013239 -0.000398637 -1.84481e-05 0.000212947 0.0190172 0.0218767 0.028181 0.004 300 0 
34 1 1 0.0176338 0.0187849 0.00394187 0 0 0 0.000126621 0.000315677 1.20908e-05 -0.000111883 -4.99255e-05 0.00043876 -0.0622638 0.0367341 -0.00340048 0.004 300 0 
206 1 1 0.0255388 0.0192342 0.00397038 0 0 0 3.62465e-05 0.000273738 -0.000160964 -0.000220657 0.000212582 0.000190935 0.0182796 -0.0129211 -0.00206741 0.004 300 0 
104 1 1 0.0334167 0.0199317 0.00389797 0 0 0 0.000103913 0.000286494 -0.000163449 4.20689e-05 1.88697e-05 0.000186985 -0.0539825 0.0236577 0.00507104 0.004 300 0 
809 1 1 -0.0412084 0.0204912 0.00395491 0 0 0 -5.06298e-05 8.05282e-05 -6.02995e-05 2.51784e-05 -0.000315758 7.82683e-05 0.0139401 -0.0254909 -0.0260951 0.004 300 0 
773 1 1 -0.0331516 0.0204527 0.00393803 0 0 0 0.000153459 0.000201283 -3.18642e-05 0.000380102 2.88442e-05 -5.63787e-05 -0.0436422 0.0187652 -0.057049 0.004 300 0 
792 1 1 0.00347275 0.0219701 0.00392088 0 0 0 0.000167999 0.000198462 0.000224001 -0.000704356 7.93925e-05 -9.59706e-05 0.0424021 -0.00161642 -0.044994 0.004 300 0 
718 1 1 0.0413202 0.0203632 0.00392994 0 0 0 9.60831e-05 8.43507e-05 -6.89126e-05 0.000296643 -3.362e-05 0.000206026 -0.0198254 -0.000806936 -0.0370006 0.004 300 0 
101 1 1 -0.0371188 0.0272951 0.00390503 0 0 0 6.77831e-05 0.000146489 -2.88425e-05 0.000313156 0.000118236 -6.29009e-05 -0.00552209 0.00452343 0.0287611 0.004 300 0 
246 1 1 -0.0290577 0.0272801 0.00398122 0 0 0 0.000442708 -5.069e-06 -5.78443e-06 0.000595893 0.00055387 -0.000160592 0.0943783 0.0809835 0.0752568 0.004 300 0 
331 1 1 -0.0212283 0.0257782 0.00389952 0 0 0 0.000208115 0.000296463 -1.19762e-05 0.000322385 0.000749815 0.000420869 -0.0270995 -0.00292521 -0.00786314 0.004 300 0 
846 1 1 -0.0134707 0.0274146 0.00397565 0 0 0 3.96394e-05 0.000233833 4.12656e-06 9.08317e-05 0.000458603 0.000121196 -0.0271028 0.00399396 0.0417184 0.004 300 0 
348 1 1 -0.00330183 0.0260627 0.00393384 0 0 0 2.28455e-05 -1.55595e-05 0.000260857 6.94174e-05 0.000452961 4.02367e-05 0.0697388 -0.0378331 0.0749168 0.004 300 0 
786 1 1 0.00840057 0.0281503 0.00389536 0 0 0 0.000246707 0.000376855 0.000376377 -0.000397874 -0.000177995 -0.000219118 -0.0612886 0.0700146 0.0609446 0.004 300 0 
316 1 1 0.0162805 0.0272916 0.00390516 0 0 0 6.05838e-05 0.000450672 0.00015886 0.00032775 -0.000173136 0.000376838 -0.108721 0.0311246 -0.0105413 0.004 300 0 
495 1 1 0.0288864 0.0264603 0.00396703 0 0 0 -2.98248e-05 0.000471348 4.32985e-05 7.51226e-05 0.00022726 -2.79826e-05 0.0335904 0.086117 -0.00883042 0.004 300 0 
863 1 1 0.0367262 0.0277635 0.00392942 0 0 0 -7.77274e-05 0.000148155 -7.84443e-06 -0.000150366 0.000169999 9.79872e-05 -0.0163853 -0.0249292 -0.0371417 0.004 300 0 
511 1 1 -0.00762459 0.0327166 0.00388369 0 0 0 -9.39005e-05 0.000135672 0.000190561 0.000123883 0.000207578 -2.07896e-06 -0.0103563 -0.0510988 -0.0481141 0.004 300 0 
722 1 1 0.0016406 0.0322873 0.00396753 0 0 0 7.0565e-05 0.0002098 0.000418965 -0.000104361 0.00016182 -0.000419629 -0.0680478 0.0243756 -0.00170862 0.004 300 0 
2 1 1 0.0229305 0.0316934 0.00396161 0 0 0 -0.000180117 0.000427341 0.000236364 0.000438892 0.000439412 -0.000183036 0.0191209 -0.0805038 0.0242515 0.004 300 0 
254 1 1 0.0304819 0.0344264 0.0039815 0 0 0 0.00250232 -0.00318287 -2.45511e-08 -7.15315e-09 3.81762e-08 3.82348e-06 0.797563 0.627008 -0.202824 0.004 300 0 
257 1 1 -0.0296336 0.0352216 0.00395148 0 0 0 -0.000217524 -4.5802e-05 0.000253365 0.000646994 0.000774898 7.29682e-05 -0.0046778 -0.0912351 0.0235243 0.004 300 0 
582 1 1 -0.0157601 0.0356248 0.00392627 0 0 0 -0.000472002 0.000625121 1.37554e-05 -7.20608e-05 0.00134487 -3.70183e-06 -0.165172 -0.151021 -0.0421496 0.004 300 0 
255 1 1 -0.00267306 0.0389301 0.0039129 0 0 0 2.41063e-05 0.000116922 0.000103831 -0.000491248 0.000205035 -0.00016922 -0.0455627 -0.00350888 0.0110519 0.004 300 0 
887 1 1 0.00812167 0.0373183 0.00392696 0 0 0 5.58233e-06 0.000458677 0.000261406 0.000236329 6.80523e-05 -0.000339329 -0.0930162 0.0289055 -0.0381543 0.004 300 0 
719 1 1 0.0157849 0.0351938 0.00398335 0 0 0 -6.99324e-05 0.000411894 4.32273e-06 2.78397e-06 0.000105684 9.58655e-05 0.0332647 0.0446183 0.00260683 0.004 300 0 
21 1 1 0.0234266 0.0396317 0.00391409 0 0 0 -6.23194e-05 7.43304e-05 0.000100568 0.000167412 -0.000212663 0.000101595 -0.0269805 -0.0164675 -0.0435359 0.004 300 0 
325 1 1 -0.0222363 0.0402997 0.00393709 0 0 0 -0.000267882 0.000206509 -7.75914e-05 -0.000176527 0.000187518 0.000446259 -0.00377385 -0.0262246 -0.12351 0.004 300 0 
595 1 1 -0.0149322 0.0435414 0.00398257 0 0 0 -6.88234e-05 0.000101321 -0.000121273 -0.000733397 0.00105499 -0.00058641 0.0671734 -0.0169117 -0.0351656 0.004 300 0 
568 1 1 0.0162933 0.0430926 0.00392548 0 0 0 9.41198e-05 0.00020484 -5.1341e-05 4.92366e-05 -3.57724e-05 -8.36588e-05 -0.0283402 0.0311659 -0.0101021 0.004 300 0 
387 1 1 -0.00719939 0.0454832 0.00390592 0 0 0 -4.41572e-06 6.63676e-06 -8.10462e-05 -0.000289178 0.000160287 -0.000482245 0.0118835 0.0007423 0.00201098 0.004 300 0 
852 1 1 0.000758807 0.0460605 0.00397705 0 0 0 -7.46479e-07 3.58256e-05 7.31285e-05 -0.000115078 -0.000106547 -0.000233739 -0.00985967 -0.033282 0.00257664 0.004 300 0 
157 1 1 0.00865537 0.0452494 0.0038974 0 0 0 0.000102859 0.000117162 0.000104889 0.000131283 -4.04521e-05 -5.94032e-05 -0.00115053 0.0335399 0.0162258 0.004 300 0 
400 1 1 -0.0247542 -0.038793 0.00974738 0 0 0 -3.6912e-05 0.000105989 -0.000104459 0.000772312 9.64704e-05 0.000701036 -0.0948125 -0.0735623 0.107905 0.004 300 0 
606 1 1 -0.000655816 -0.0387248 0.00814053 0 0 0 -3.76781e-05 -0.00019682 0.000423709 0.00028521 -0.000648772 -0.00036082 0.0365822 -0.114089 0.0228946 0.004 300 0 
724 1 1 -0.0339161 -0.0311585 0.00984531 0 0 0 -0.000176847 -8.28022e-05 -0.000107319 0.00067577 -0.000305318 0.000899596 0.0938959 -0.0972076 -0.0520059 0.004 300 0 
183 1 1 0.0251947 -0.0311676 0.00751983 0 0 0 -0.000651628 -0.000147515 0.000854601 0.00049092 -0.000223671 0.000110011 0.201677 -0.0964011 -0.110256 0.004 300 0 
544 1 1 -0.0140201 -0.0253068 0.00875859 0 0 0 0.00126958 1.63197e-05 -0.000228195 0.000556484 0.000307995 -0.00137113 0.00739539 -0.0916812 -0.0660566 0.004 300 0 
29 1 1 -0.00450605 -0.0263827 0.0090058 0 0 0 0.000567356 0.000424393 9.51551e-06 0.0012081 -0.000841519 -0.00095647 0.0234791 -0.096849 0.094555 0.004 300 0 
248 1 1 0.00349587 -0.0278357 0.00762893 0 0 0 -0.000395276 4.13834e-05 -0.000121817 0.000805588 -0.000435073 -0.00130053 0.15113 0.0136433 0.117701 0.004 300 0 
79 1 1 0.0358387 -0.0289443 0.00960197 0 0 0 -0.000344524 -0.000510092 -0.000284705 0.000752011 7.84479e-05 0.000917954 -0.462543 0.211779 0.071201 0.004 300 0 
291 1 1 -0.004583 -0.0174003 0.00909875 0 0 0 0.000127088 0.000544165 -0.000626636 0.00025712 -0.000819769 -0.000127896 -0.0854915 -0.0132623 -0.0115375 0.004 300 0 
891 1 1 0.0037351 -0.0155271 0.00632577 0 0 0 7.63701e-05 0.000213832 -0.000756101 0.000737735 -0.000382679 -0.000648632 0.054857 0.0078835 0.1204 0.004 300 0 
870 1 1 0.0138371 -0.0156258 0.00832294 0 0 0 0.000184079 -0.000687878 -0.00159587 0.000641818 0.000173056 -0.000502335 -0.200704 -0.114523 0.155431 0.004 300 0 
777 1 1 0.0349262 -0.0188261 0.00775911 0 0 0 0.00890827 0.00875681 -0.00641644 -0.00141499 -0.0015711 0.00110543 0.844203 1.72472 2.67942 0.004 300 0 
837 1 1 -0.0294689 -0.0146646 0.00800745 0 0 0 0.000725996 2.55195e-07 0.00024194 0.00128347 0.000260598 0.000141761 -0.0334046 -0.193135 -0.0621472 0.004 300 0 
445 1 1 -0.0181321 -0.01385 0.00994775 0 0 0 0.000355359 0.000116283 0.000448034 0.000489426 -0.000959506 -0.00119653 -0.187845 -0.112107 -0.110945 0.004 300 0 
783 1 1 0.00486817 -0.00860443 0.00993592 0 0 0 0.000184813 -0.000176001 -0.000530466 0.000418378 -0.000243415 -0.000681464 0.138241 -0.0117135 -0.189032 0.004 300 0 
615 1 1 -0.0350977 -0.000758149 0.00954882 0 0 0 -0.000204728 -7.06056e-05 0.000217766 -1.04735e-05 0.00013078 7.35958e-05 0.11489 -0.00203034 0.09198 0.004 300 0 
476 1 1 -0.0459512 0.00262389 0.00988961 0 0 0 0.000116937 4.04651e-05 -0.000274523 0.000178261 -0.00017399 -0.000366168 -0.0819614 0.0367569 -0.0111489 0.004 300 0 
16 1 1 -0.0210407 0.00169714 0.00831513 0 0 0 -4.10516e-05 0.000574598 -5.32258e-05 2.24546e-05 -0.000733492 -0.000210108 -0.0778609 0.198689 0.0141327 0.004 300 0 
303 1 1 0.0459468 0.00350515 0.00962785 0 0 0 -0.000429977 -0.000286194 -0.000148368 -0.000668405 -0.000195339 -0.0004373 0.0682766 -0.107176 0.042555 0.004 300 0 
523 1 1 -0.0389763 0.00803189 0.00933539 0 0 0 -0.000151971 -1.97198e-05 -0.000143252 0.000316131 -0.000350088 2.84737e-05 0.0344102 0.0673094 -0.00910973 0.004 300 0 
704 1 1 -0.0107961 0.00519013 0.00743664 0 0 0 0.000270259 -0.000352563 -0.000863784 0.000227579 5.87307e-05 0.000861533 -0.150222 0.0545949 0.139729 0.004 300 0 
454 1 1 0.00101134 0.00715774 0.00933997 0 0 0 0.000165411 3.29694e-06 -0.000325744 8.33996e-05 -0.00127144 0.000298443 -0.0228647 0.0546138 0.291091 0.004 300 0 
31 1 1 0.0102192 0.00547542 0.00833059 0 0 0 5.6128e-05 -7.18232e-05 -0.000421007 -8.8996e-05 0.000338715 0.000881625 0.0211032 0.0398032 -0.0686635 0.004 300 0 
135 1 1 0.0188921 0.00749104 0.00960787 0 0 0 0.000802991 0.000543472 -0.000594477 -0.000585228 -0.00035829 0.00100645 -0.0358615 0.082296 0.154713 0.004 300 0 
712 1 1 0.028113 0.00743591 0.00999348 0 0 0 0.000360814 0.000593822 -0.000865363 -0.000423838 0.000722856 0.000788571 -0.0310456 0.0556373 -0.0297576 0.004 300 0 
210 1 1 0.0394902 0.00814648 0.00990004 0 0 0 -3.90759e-05 0.000191062 -0.000303664 -0.00108452 0.000181349 1.82164e-05 0.0808603 -0.0506606 -0.120672 0.004 300 0 
651 1 1 -0.0437976 0.0143394 0.00824249 0 0 0 -2.14604e-05 0.000197288 2.07237e-05 -0.000154508 -0.000346523 0.000164027 -0.103481 0.0267906 0.0656033 0.004 300 0 
621 1 1 0.0437183 0.0147829 0.00900865 0 0 0 0.000202381 0.000146254 -1.62413e-05 -0.00037643 0.000126512 -1.43839e-07 0.00256708 0.0195564 -0.00574378 0.004 300 0 
726 1 1 -0.0257667 0.0199958 0.0069304 0 0 0 0.000194944 0.000199712 -0.000181295 0.000808201 0.000521525 0.000235437 -0.0552877 -0.0276167 -0.0502534 0.004 300 0 
230 1 1 -0.00847396 0.02458 0.009737 0 0 0 1.10757e-05 -0.000188064 0.000277858 0.000234739 0.00114314 2.51779e-05 -0.34263 -0.0383591 0.198109 0.004 300 0 
320 1 1 -0.00171717 0.0203866 0.0097801 0 0 0 0.000327259 0.000396921 0.000437216 -0.000685802 -0.00115424 -0.000443534 0.0565332 0.116345 -0.0285933 0.004 300 0 
7 1 1 0.0129137 0.0224319 0.00918276 0 0 0 0.000104016 0.000109233 0.000394304 -0.000209093 -0.000218357 -1.05933e-05 0.168929 -0.0235586 0.0636006 0.004 300 0 
83 1 1 0.0214173 0.0239681 0.00888136 0 0 0 0.000224567 0.000520472 -3.97404e-05 0.000493752 -4.61683e-05 0.000197276 0.000602749 0.0625519 -0.058888 0.004 300 0 
747 1 1 -0.0337257 0.0313871 0.00972938 0 0 0 -0.000245762 1.2507e-05 0.000400202 0.000518571 0.000163554 -0.000405461 0.180488 -0.0130371 0.196441 0.004 300 0 
51 1 1 -0.0226165 0.0329648 0.00702556 0 0 0 -5.83048e-05 0.000638469 0.00016733 0.000372655 0.000543575 0.000698339 -0.0790711 0.214662 0.15345 0.004 300 0 
116 1 1 -0.00939505 0.0391135 0.00812385 0 0 0 2.3833e-06 0.000382312 3.61448e-05 -0.000514255 0.000453099 -0.000286619 -0.103425 0.00389736 0.00437947 0.004 300 0 
205 1 1 -0.000563479 -0.046076 0.011024 0 0 0 0.000284902 -0.000104752 0.000305062 0.000180428 -8.95523e-05 -0.0010054 0.0267157 0.565327 -0.114075 0.004 300 0 
836 1 1 0.00738058 -0.0454686 0.0106551 0 0 0 4.53267e-05 -4.16611e-05 0.000269113 0.000503426 0.000250483 0.000704635 -0.0143336 0.047004 0.0545415 0.004 300 0 
486 1 1 -0.0157767 -0.0401653 0.0103748 0 0 0 0.00059734 -0.000130918 -0.000355096 -0.00129081 0.000631536 -0.000465719 0.032208 -0.038811 -0.0167635 0.004 300 0 
311 1 1 -0.00837509 -0.0440618 0.0106913 0 0 0 -0.000578953 -0.00117758 3.19732e-05 -0.000719639 -0.000814842 3.68257e-06 0.329402 -0.135439 -0.0572923 0.004 300 0 
447 1 1 0.0180488 -0.0423893 0.0118308 0 0 0 -0.000399677 0.000209641 0.000147405 0.000495002 -0.000301279 -1.45095e-05 0.141218 -0.223341 0.0362018 0.004 300 0 
538 1 1 -0.0295823 -0.0353422 0.0149841 0 0 0 -4.75848e-05 8.00711e-05 -0.000129776 0.000688927 2.02683e-05 0.000947457 -0.06691 0.126967 0.0667858 0.004 300 0 
279 1 1 0.011149 -0.0385383 0.0114104 0 0 0 -0.000156143 0.000284601 0.000350057 0.000777868 -0.00013972 0.000417734 0.0251903 0.0597922 -0.0139268 0.004 300 0 
110 1 1 0.025041 -0.0386649 0.0117242 0 0 0 -0.000359519 0.000299591 0.000245042 0.000303646 1.14568e-05 6.83479e-05 -0.127756 0.226597 -0.0149223 0.004 300 0 
188 1 1 -0.0178971 -0.0321147 0.0101687 0 0 0 0.000518585 0.000350844 -0.000109284 -0.000394908 0.000772725 -0.000705514 -0.132781 0.00554675 -0.0954319 0.004 300 0 
810 1 1 -0.0102652 -0.0344525 0.0102017 0 0 0 0.000325822 0.000239686 -9.05575e-05 -9.52815e-05 3.89502e-05 -0.000501296 0.0209908 -0.0622163 0.12507 0.004 300 0 
412 1 1 -0.00317492 -0.0328868 0.0133524 0 0 0 -0.000132286 0.000288485 0.00024914 -0.000399251 -0.000965903 -0.000930307 -0.090207 -0.0364174 -0.167604 0.004 300 0 
545 1 1 0.00451586 -0.0343017 0.0121928 0 0 0 -0.000296983 -7.57018e-06 0.000332866 0.000146495 -0.000526121 -8.02386e-05 -0.132477 0.0592075 0.0914414 0.004 300 0 
100 1 1 0.0115029 -0.0305891 0.0117036 0 0 0 -0.000566515 0.000368142 0.000622341 0.000516823 -0.000376872 0.000431029 0.0912955 -0.145957 0.067814 0.004 300 0 
556 1 1 0.0183617 -0.0344778 0.0109239 0 0 0 -0.000579218 0.000636121 0.000923986 0.000182215 -0.000449866 0.000512853 0.0802433 -0.00175369 -0.0284783 0.004 300 0 
32 1 1 0.0311301 -0.0339596 0.0134783 0 0 0 -0.00040135 -2.46913e-05 0.00048922 0.000995805 -9.83684e-05 0.000649543 0.312013 -0.153303 0.000710954 0.004 300 0 
5 1 1 -0.0386752 -0.0250107 0.0114415 0 0 0 0.000228629 -2.83981e-05 7.88202e-05 0.000724742 -0.000182205 0.000212127 0.0723556 -0.00299666 -0.0669114 0.004 300 0 
415 1 1 -0.0253857 -0.0293754 0.0104102 0 0 0 0.000947634 0.000663372 -0.000522887 -0.000674565 0.000321144 8.13147e-05 -0.133901 0.0855757 -0.0812711 0.004 300 0 
446 1 1 -0.00967563 -0.0280625 0.014837 0 0 0 0.000356583 0.000472536 -4.91093e-05 0.000559963 0.000330875 -0.00109455 -0.103056 0.000109745 -0.120846 0.004 300 0 
814 1 1 0.0190712 -0.026285 0.0103741 0 0 0 -0.000237184 0.000498403 0.000595957 0.000293987 -0.000901827 0.000606237 0.134409 0.118973 -0.230557 0.004 300 0 
24 1 1 0.0289644 -0.0255342 0.0115704 0 0 0 0.000244536 -0.000618484 0.000915179 0.000697939 -0.000164852 -0.000433845 -0.115359 0.106528 -0.144233 0.004 300 0 
266 1 1 -0.0293265 -0.0224323 0.0104422 0 0 0 0.000858284 0.000240988 -0.000204161 -3.90771e-05 -5.27745e-05 0.000290046 -0.0661709 -0.0422449 -0.173457 0.004 300 0 
487 1 1 -0.0208113 -0.0214247 0.0102394 0 0 0 0.00135269 0.000536281 -0.000570816 0.000585973 -0.000165031 -0.000360338 -0.227071 -0.182816 0.00285917 0.004 300 0 
655 1 1 0.0019314 -0.0211502 0.0115859 0 0 0 -7.46373e-05 6.24712e-05 -0.000734892 0.000432155 -0.000389593 -0.00148227 -0.167101 0.127526 -0.174845 0.004 300 0 
243 1 1 0.0112863 -0.0227088 0.010886 0 0 0 -0.000550047 5.12882e-05 0.000762869 0.000653459 -0.000324471 -0.000363108 -0.00973146 0.19375 -0.201583 0.004 300 0 
528 1 1 0.0400453 -0.0227804 0.0123069 0 0 0 -0.00102952 -2.80938e-05 -0.00145568 0.000898839 0.000244993 -0.000474702 -0.0584765 -0.383152 0.076514 0.004 300 0 
356 1 1 -0.0361838 -0.0175066 0.0110172 0 0 0 0.000338349 6.42763e-05 -0.000426646 0.000826585 0.00069564 0.000386033 -0.0795139 -0.00939823 0.119789 0.004 300 0 
112 1 1 -0.0259298 -0.0156227 0.0150009 0 0 0 -8.29397e-06 0.00120431 0.00104511 0.00180849 -0.000533718 -0.000216503 -0.252056 -0.0557669 -0.0410452 0.004 300 0 
739 1 1 -0.0119179 -0.0183455 0.011904 0 0 0 0.000450076 1.52369e-05 -0.000700483 -0.000271937 -0.000284644 -0.000612975 -0.210103 -0.0446756 0.305085 0.004 300 0 