ITEM: TIMESTEP
14400
ITEM: NUMBER OF ATOMS
891
ITEM: BOX BOUNDS mm mm mm
-0.05 0.05
-0.05 0.05
0 0.15
ITEM: ATOMS id type type x y z ix iy iz vx vy vz fx fy fz omegax omegay omegaz radius f_Temp[0] f_heatFlux[0] 
199 1 1 -0.00444395 -0.0458157 0.00397397 0 0 0 0.000119605 -4.55591e-05 6.6757e-05 -1.33814e-05 -0.000146303 -0.000197017 0.0091992 0.0196466 -0.0310279 0.004 300 0 
873 1 1 -0.0201489 -0.0414788 0.00390179 0 0 0 -9.07114e-05 -4.85416e-06 2.02912e-05 6.63106e-05 -2.74067e-05 -3.77163e-05 -0.0188426 -0.0398993 0.00970891 0.004 300 0 
485 1 1 -0.0126799 -0.0442533 0.00397274 0 0 0 3.15563e-05 -0.000105956 0.000107551 -3.02405e-05 -6.23237e-05 -0.000311323 0.0334613 0.0218794 -0.0233775 0.004 300 0 
850 1 1 0.00335619 -0.0441759 0.00393971 0 0 0 0.000132639 4.23639e-06 -4.405e-05 5.68536e-05 2.51214e-05 -0.000188941 0.00644675 0.0313546 0.0602428 0.004 300 0 
186 1 1 0.0114407 -0.044599 0.00392749 0 0 0 0.000122408 7.00006e-05 1.49601e-05 0.000108868 0.000102097 -8.40354e-06 2.13179e-05 0.0154418 -0.0122534 0.004 300 0 
560 1 1 0.018969 -0.0420005 0.0039465 0 0 0 0.00011641 9.28471e-05 -4.01217e-06 7.06021e-05 6.72585e-05 -2.08916e-05 -0.027162 0.0228237 -0.0146056 0.004 300 0 
102 1 1 -0.0147508 -0.0357327 0.00386341 0 0 0 -4.05646e-05 -0.000135243 -9.51943e-06 4.84668e-05 1.3452e-05 -0.000157145 0.00995351 0.00817123 -0.00564589 0.004 300 0 
88 1 1 -0.00730822 -0.0383835 0.00392707 0 0 0 1.88093e-05 -8.88479e-05 6.37179e-05 2.73957e-05 -0.00011194 -0.000185964 0.00469656 -0.0130376 0.0334526 0.004 300 0 
776 1 1 0.0052037 -0.0354368 0.0039494 0 0 0 9.16983e-05 -1.10686e-05 -2.72973e-05 1.96712e-05 1.98927e-05 2.41476e-05 0.018187 -0.00477448 0.0120835 0.004 300 0 
410 1 1 0.0130237 -0.036813 0.00392486 0 0 0 0.0001432 8.67154e-05 -2.503e-05 0.000128113 7.13356e-05 5.1176e-05 -0.00986197 0.0219827 0.0112412 0.004 300 0 
282 1 1 0.025876 -0.0381316 0.00388559 0 0 0 8.42411e-05 -1.09057e-05 8.45807e-07 2.65414e-05 3.88501e-05 -8.33115e-06 0.0142075 -0.00607812 -0.0219093 0.004 300 0 
682 1 1 -0.030201 -0.0348783 0.00393516 0 0 0 -3.49866e-05 3.90473e-05 -6.25559e-06 -0.00017865 -5.50898e-06 -8.34973e-05 0.00581926 0.0111582 0.00950388 0.004 300 0 
251 1 1 -0.0224186 -0.0338471 0.00392496 0 0 0 -3.10351e-05 -3.50123e-05 -2.59741e-05 -7.66672e-05 -6.53096e-05 -0.000118163 0.00475611 -0.00469984 -0.0312887 0.004 300 0 
770 1 1 -0.00204741 -0.0321403 0.00393875 0 0 0 -7.1534e-06 -7.95229e-05 -2.55915e-05 -2.87704e-05 -6.50323e-05 9.58765e-05 0.019872 -0.0143833 0.0321876 0.004 300 0 
883 1 1 0.0181657 -0.030753 0.00390063 0 0 0 0.000200353 -6.16585e-05 5.37826e-06 0.0001221 0.000119449 0.000135153 0.0341438 0.0340841 -0.0376143 0.004 300 0 
838 1 1 0.0320338 -0.0331086 0.00396169 0 0 0 0.000111209 -9.48933e-06 6.40408e-05 -3.1682e-06 -1.63529e-06 8.4816e-06 0.00976217 0.0144382 -0.00358302 0.004 300 0 
617 1 1 -0.0372516 -0.0271218 0.00391692 0 0 0 -2.03086e-05 1.27074e-06 6.26934e-07 -3.12997e-05 5.51727e-05 -3.37146e-05 0.000432925 -0.00220931 0.00525242 0.004 300 0 
824 1 1 -0.0292988 -0.0270305 0.00393038 0 0 0 -2.01732e-05 1.36556e-05 1.15857e-05 -9.91021e-05 -6.20997e-05 1.92039e-05 -0.00102174 0.00363099 0.00163061 0.004 300 0 
571 1 1 -0.0202614 -0.0262206 0.00393402 0 0 0 -3.18978e-05 -5.48569e-05 -2.21516e-05 -0.000117336 -0.000220366 -5.2868e-05 0.00509588 0.00725263 0.0258496 0.004 300 0 
861 1 1 -0.00959347 -0.0297297 0.003897 0 0 0 -5.48251e-05 -0.00015358 -0.000130571 0.000112024 -2.19169e-05 -0.000102412 0.0177672 -0.00597332 0.00359147 0.004 300 0 
434 1 1 0.0103456 -0.0293803 0.00393674 0 0 0 0.000105794 6.77062e-05 -4.10285e-05 -3.6635e-05 8.02385e-05 6.41918e-05 -0.0201643 -0.000751899 0.000183072 0.004 300 0 
103 1 1 0.0311548 -0.0252348 0.00394446 0 0 0 3.48554e-05 3.37981e-05 3.64474e-05 -4.99086e-05 7.50209e-05 3.59914e-05 -0.0131049 -0.00198971 0.030885 0.004 300 0 
769 1 1 -0.0413438 -0.0202819 0.00398268 0 0 0 -6.02509e-05 -1.57232e-05 -1.94666e-05 8.45367e-05 2.47711e-05 1.66627e-05 -0.00986446 -0.00530825 0.00338499 0.004 300 0 
94 1 1 -0.0333712 -0.0202174 0.00394373 0 0 0 -7.13856e-05 -9.019e-07 2.54772e-05 7.51155e-05 0.000104058 -2.22405e-05 0.00652652 -0.00631543 0.00703212 0.004 300 0 
40 1 1 -0.0254006 -0.0201459 0.00391795 0 0 0 -7.47809e-05 -2.15837e-05 2.11296e-06 6.67122e-05 -2.16023e-05 -8.68335e-06 -0.0003675 -0.00821855 -0.00710634 0.004 300 0 
19 1 1 -0.00865162 -0.0218797 0.00393961 0 0 0 7.12262e-05 -0.000158388 -0.000178246 -3.93374e-05 -5.76569e-05 -0.000159844 -0.0051934 0.0198126 -0.0136524 0.004 300 0 
442 1 1 -0.000437652 -0.021849 0.0039355 0 0 0 8.77319e-05 -0.000295167 -0.000135535 0.000249149 0.000173092 0.00014341 0.0593263 0.00520691 0.0656006 0.004 300 0 
259 1 1 0.00753177 -0.0219989 0.00392482 0 0 0 9.96095e-05 -4.94485e-06 -5.56131e-05 7.27534e-05 3.56102e-05 0.000190627 0.00389965 0.0184706 0.0365668 0.004 300 0 
512 1 1 0.0153882 -0.023235 0.00397847 0 0 0 0.000158254 -7.97016e-05 -3.50888e-05 7.64482e-05 -0.000253257 4.02759e-05 0.0284583 -0.000862318 -0.0437226 0.004 300 0 
470 1 1 0.0232616 -0.0243593 0.00390894 0 0 0 9.12381e-05 -7.66569e-05 -2.59773e-05 4.21501e-05 8.3207e-05 0.000162285 -0.000148139 0.00833638 0.017091 0.004 300 0 
451 1 1 0.0390292 -0.0244868 0.0039212 0 0 0 4.08083e-05 4.8471e-05 1.52725e-05 1.19552e-05 -2.1463e-05 -0.00012633 0.00192929 0.00591357 -0.0235203 0.004 300 0 
531 1 1 -0.0164596 -0.0191997 0.00396153 0 0 0 2.90538e-05 -0.000139962 -1.72709e-05 -0.000259665 -0.000146296 0.000148839 0.0206376 0.0232562 -0.0824203 0.004 300 0 
229 1 1 0.0202062 -0.0169129 0.00386962 0 0 0 4.60565e-05 -3.40089e-05 4.58651e-05 8.19745e-05 3.64166e-05 0.000231144 0.0105954 0.017813 0.0707419 0.004 300 0 
734 1 1 0.0280528 -0.0179427 0.00394447 0 0 0 -4.73483e-07 4.31047e-05 3.34295e-05 0.000146936 0.00011306 0.000210836 0.0139574 -0.0179141 -0.0443877 0.004 300 0 
635 1 1 0.0425976 -0.0174484 0.00392252 0 0 0 4.62139e-05 -5.79215e-06 2.98189e-05 7.71517e-05 -0.000175272 -4.53478e-05 0.00526421 0.0121241 0.0134448 0.004 300 0 
87 1 1 -0.0448211 -0.010467 0.00391445 0 0 0 -2.89666e-06 1.38081e-05 3.34693e-05 -2.44687e-05 0.000115182 -6.60664e-05 -0.00102729 0.000413016 0.00115478 0.004 300 0 
406 1 1 -0.0373936 -0.0133913 0.00396081 0 0 0 -0.000119783 -1.81336e-05 4.64602e-05 7.01416e-05 3.46327e-05 -0.000129255 0.0145583 -0.0377798 0.00461745 0.004 300 0 
224 1 1 -0.0230577 -0.012602 0.00387947 0 0 0 -8.76226e-05 -3.18831e-05 -4.12573e-05 0.00013839 0.000116332 -9.31926e-05 -0.00593776 -0.00741198 -0.00465095 0.004 300 0 
751 1 1 -0.0103002 -0.0141542 0.00396912 0 0 0 4.65424e-05 -0.000214889 -0.000174996 -0.000205987 7.30425e-05 0.000185814 0.0165974 0.020976 0.0346163 0.004 300 0 
622 1 1 -0.00273465 -0.0117403 0.00388526 0 0 0 2.63108e-05 -0.000143145 -0.000221233 -5.19093e-05 -1.59205e-05 0.000191426 0.0338875 0.0106692 1.47799e-05 0.004 300 0 
128 1 1 0.00951191 -0.0106852 0.00388456 0 0 0 -1.97654e-05 -0.00024907 -2.14972e-05 -0.000107255 -7.88398e-05 0.000114156 0.0414272 -0.0165596 0.0119589 0.004 300 0 
68 1 1 0.0262824 -0.0102109 0.00395486 0 0 0 5.36935e-05 0.000109576 -4.51229e-05 0.000159752 4.05917e-05 0.000200414 -0.0383932 0.00449093 0.0419042 0.004 300 0 
791 1 1 0.0340943 -0.0118669 0.00392834 0 0 0 -1.3026e-05 0.00012786 0.000113116 0.00010371 0.000288099 -5.81758e-05 -0.0438203 -0.0102872 -0.0831051 0.004 300 0 
354 1 1 -0.0380767 -0.00550444 0.0039207 0 0 0 -6.63912e-05 5.15388e-05 3.32825e-06 -0.00011671 7.0768e-05 -0.000136607 -0.0164165 -0.0104545 -0.0244221 0.004 300 0 
725 1 1 -0.0304918 -0.00800365 0.00392476 0 0 0 -0.000130922 -0.000106183 5.90546e-05 -0.000198166 0.000388625 -0.000110232 0.0036711 -0.0342509 0.00900771 0.004 300 0 
353 1 1 -0.0161288 -0.00879796 0.00391144 0 0 0 -7.2768e-05 -0.00010651 -6.96186e-05 6.48391e-05 0.000483001 -4.86889e-05 -0.00181167 0.000473589 -0.0254263 0.004 300 0 
391 1 1 -0.00857642 -0.00639728 0.00391388 0 0 0 -0.00011424 -0.000164379 -0.000146609 -3.24321e-05 0.000199987 -7.01042e-06 0.00330747 -0.0191332 0.0224552 0.004 300 0 
683 1 1 0.0173544 -0.00945595 0.00391053 0 0 0 -6.18065e-06 -7.1751e-05 4.91443e-05 -1.41466e-07 5.71614e-05 0.00023594 0.0158959 -0.00981724 0.049575 0.004 300 0 
690 1 1 0.0385532 -0.00520171 0.00390072 0 0 0 9.97025e-05 0.000136371 0.000115062 7.02312e-05 -0.000256234 5.63029e-05 -0.0326694 0.0274848 0.0164693 0.004 300 0 
10 1 1 0.0449635 -0.00990823 0.00397392 0 0 0 4.02039e-05 3.5565e-06 6.20167e-05 -2.4266e-05 -0.000204461 8.26863e-05 0.0071062 0.0037885 -0.0187374 0.004 300 0 
402 1 1 -0.046016 -0.00264425 0.00392253 0 0 0 -1.84946e-05 3.28392e-05 1.44145e-05 -3.68119e-05 0.000104948 -0.000158275 -0.0103784 -0.00687079 0.00386797 0.004 300 0 
761 1 1 -0.0294735 -0.000167523 0.00392576 0 0 0 -0.000110348 1.21638e-05 -1.60773e-05 -3.83215e-05 0.000227727 -6.01185e-05 -0.016097 -0.00702964 -0.0183054 0.004 300 0 
293 1 1 -0.0229316 -0.00466816 0.00395965 0 0 0 -0.000103239 -6.287e-05 -2.74615e-06 2.20472e-05 0.000261351 -8.50008e-05 0.0241066 -0.0132674 0.0160008 0.004 300 0 
384 1 1 -0.014613 -0.000928778 0.00398146 0 0 0 0.00052835 -0.00260333 6.88772e-05 -1.14294e-05 -1.8663e-05 5.57952e-05 0.670339 0.121334 0.681348 0.004 300 0 
378 1 1 0.00130681 -0.00490473 0.00392926 0 0 0 5.13336e-05 -0.000192512 -0.000102377 -0.000213654 0.000122504 4.07544e-05 0.0371332 0.0202772 -0.00914375 0.004 300 0 
390 1 1 0.0103714 -0.00276537 0.00396919 0 0 0 0.000108256 -0.000221046 -3.05325e-05 5.78386e-05 -0.000292418 9.54573e-05 -0.00436425 0.0163298 -0.0798467 0.004 300 0 
411 1 1 0.0223617 -0.00329278 0.00397704 0 0 0 -1.26874e-06 5.23749e-05 6.9478e-05 0.000143399 -0.0001641 0.000142082 0.0346391 0.0756438 -0.0213037 0.004 300 0 
342 1 1 0.0307345 -0.00361591 0.00397505 0 0 0 -8.50872e-05 9.57247e-05 -5.45552e-05 2.34262e-05 -0.000263265 3.7347e-05 -0.00934606 -0.0513138 -0.0101577 0.004 300 0 
262 1 1 0.0460221 -0.00206508 0.00395835 0 0 0 -2.44275e-05 -5.18877e-05 0.000111091 -2.66482e-05 -0.000113324 4.79074e-05 0.0203988 0.00924559 0.0331411 0.004 300 0 
261 1 1 -0.0398215 0.00224583 0.00393488 0 0 0 -3.73111e-05 8.4031e-05 -2.20671e-05 -6.48878e-05 8.84788e-05 -7.12992e-05 -0.01248 -0.00956755 0.00528117 0.004 300 0 
666 1 1 -0.00454546 0.000451593 0.0039564 0 0 0 -8.4381e-05 -0.000146821 -2.94382e-05 -2.7879e-05 0.0001476 -5.86349e-05 0.013446 -0.0418173 -0.00803301 0.004 300 0 
815 1 1 0.0043441 0.00243531 0.00392799 0 0 0 8.73766e-05 -0.00019762 6.99093e-05 -0.000125517 0.000200045 -0.000217898 0.0425528 0.0253533 0.0476066 0.004 300 0 
306 1 1 0.0163702 0.00247762 0.00395852 0 0 0 0.00012581 -0.00030358 -1.2253e-05 4.97814e-05 -8.87325e-05 9.18839e-05 0.0585896 0.0214864 0.069797 0.004 300 0 
178 1 1 0.0241042 0.00444193 0.00386237 0 0 0 -1.15067e-05 -7.38061e-07 4.30732e-05 1.43303e-05 -0.000192926 -7.00397e-05 -0.0139753 0.00289594 0.0137364 0.004 300 0 
862 1 1 0.0320651 0.0042347 0.00393181 0 0 0 -6.8667e-05 -9.43436e-06 5.61445e-05 2.42044e-05 -0.000285843 6.22825e-05 0.0305328 -0.0123515 -0.00702545 0.004 300 0 
661 1 1 0.039875 0.00291419 0.00394734 0 0 0 -8.98678e-05 -7.02016e-05 0.000127637 -3.11384e-05 -3.8618e-05 -7.61755e-05 0.00407952 -0.020254 -0.0199862 0.004 300 0 
677 1 1 -0.0453781 0.00788525 0.00393639 0 0 0 5.87367e-06 3.568e-05 -4.12073e-05 -5.49319e-05 0.000105103 -6.56085e-05 -0.0025839 0.00882752 -0.00215763 0.004 300 0 
12 1 1 -0.0333157 0.00671961 0.00393677 0 0 0 -1.5787e-05 9.20095e-05 1.35757e-05 3.49204e-05 0.000116316 -1.7138e-05 -0.00752237 0.00452826 -0.0106875 0.004 300 0 
420 1 1 -0.0253988 0.00664842 0.00392706 0 0 0 -7.86942e-05 -2.79836e-05 4.80359e-05 0.000168421 0.000307489 9.45979e-05 0.0283911 -0.0185744 -0.0099309 0.004 300 0 
654 1 1 -0.0175126 0.00721027 0.00387251 0 0 0 -4.73565e-05 -0.000102136 -3.01281e-05 7.17682e-05 0.000520074 5.48262e-05 0.030165 0.00877892 0.00426524 0.004 300 0 
145 1 1 -0.00454362 0.00836578 0.0038638 0 0 0 4.49273e-05 -0.000100034 3.67263e-05 -9.37165e-05 0.000419719 -8.42484e-05 0.0196812 0.00460999 -0.000388636 0.004 300 0 
624 1 1 0.0451447 0.00890605 0.00390673 0 0 0 -5.71289e-05 -1.39791e-05 5.08392e-05 -4.40265e-06 -4.34377e-05 -0.000107149 0.00919781 -0.00594327 0.0452282 0.004 300 0 
613 1 1 -0.0372989 0.0135339 0.00384328 0 0 0 2.77622e-05 0.000106492 -4.87894e-05 -6.3604e-05 -1.05692e-05 -5.99529e-05 -0.0265134 0.00703973 0.00750675 0.004 300 0 
265 1 1 -0.0293058 0.0135429 0.00396381 0 0 0 5.39567e-06 4.9059e-05 6.32093e-05 -4.6666e-05 8.75171e-05 4.81622e-05 0.00673402 -0.0120308 -0.00440652 0.004 300 0 
273 1 1 -0.0213691 0.0141273 0.0039297 0 0 0 1.08726e-05 -5.77136e-05 0.000125792 -7.48399e-05 0.000344732 -9.68473e-05 0.0157989 -0.0188764 -0.0425368 0.004 300 0 
492 1 1 -0.0114495 0.0123718 0.00398119 0 0 0 5.1832e-06 -2.92548e-05 6.73129e-05 0.000188345 0.000302814 -0.000177329 0.000250691 -0.0304865 -0.000223889 0.004 300 0 
234 1 1 0.00585325 0.0103929 0.00392965 0 0 0 8.95615e-05 -0.000141737 0.000109973 2.97877e-06 7.49211e-05 -0.000127803 0.0225228 0.0308316 0.0236367 0.004 300 0 
160 1 1 0.0142838 0.0106364 0.00391093 0 0 0 -2.44108e-06 -0.000122538 5.65288e-05 0.000215857 -4.95748e-05 -0.000162363 0.0373893 0.00353119 0.00686892 0.004 300 0 
484 1 1 0.0220891 0.0120737 0.00390214 0 0 0 -4.06949e-05 -6.23937e-05 8.77271e-05 0.000325935 -0.000225267 -0.000175751 0.0276472 -0.00116264 0.00196969 0.004 300 0 
743 1 1 0.0300184 0.012622 0.0039815 0 0 0 -7.52585e-05 0.000188659 4.78915e-05 0.000317024 -0.000112492 -0.000506439 -0.0298709 0.0277802 0.0625651 0.004 300 0 
514 1 1 0.0379538 0.0130182 0.00386941 0 0 0 -0.000136483 8.78624e-05 0.000108583 4.79797e-05 -5.36053e-05 -0.000178164 -0.0225617 -0.0382373 -0.082864 0.004 300 0 
530 1 1 -0.0158995 0.0198646 0.0039282 0 0 0 9.1278e-05 -2.37493e-05 0.000200766 -0.000303718 8.0626e-05 1.87666e-05 -0.03254 -0.00095448 0.0270475 0.004 300 0 
227 1 1 -0.00736433 0.0192088 0.00396665 0 0 0 -0.000150969 0.000123738 0.000229526 -0.000150411 -0.000141906 -0.000192373 0.00248321 0.0032383 0.0708059 0.004 300 0 
392 1 1 -0.000498605 0.0151514 0.00394496 0 0 0 4.26846e-06 -6.69881e-05 0.000137322 -6.14212e-05 0.000241833 -0.000218965 0.00428926 -0.0183174 -0.0241431 0.004 300 0 
493 1 1 0.0098578 0.017253 0.00394725 0 0 0 7.68959e-05 -0.000122964 0.000214805 4.29726e-05 8.2362e-05 -9.8456e-05 0.0356078 -0.0119515 -0.0226096 0.004 300 0 
34 1 1 0.0176352 0.018785 0.00394182 0 0 0 0.000150307 -7.6318e-05 0.000164129 0.000104886 -0.0001934 -4.03303e-05 0.0391582 0.060073 0.0372601 0.004 300 0 
206 1 1 0.0255394 0.0192351 0.00397021 0 0 0 -1.24313e-05 4.30531e-06 3.44168e-05 0.000259832 -0.000162104 -0.000188143 -0.0146387 -0.0122656 -0.0177812 0.004 300 0 
104 1 1 0.033417 0.0199337 0.00389686 0 0 0 -2.2559e-05 8.36216e-05 8.72656e-05 0.000137752 -8.45172e-06 -0.000100618 -0.0186428 -0.00919596 0.0539962 0.004 300 0 
809 1 1 -0.0412059 0.0204948 0.00395492 0 0 0 5.11362e-05 5.15324e-05 -2.97463e-05 7.11311e-05 -4.28417e-05 -4.5657e-05 0.0138351 -0.000179835 -0.0166401 0.004 300 0 
773 1 1 -0.0331521 0.0204532 0.00393522 0 0 0 0.000112733 0.000117893 4.58719e-05 -4.86875e-05 -5.72217e-05 -3.22411e-05 -0.0008539 -0.00724631 -0.0459973 0.004 300 0 
792 1 1 0.00347623 0.0219734 0.00392171 0 0 0 -6.12019e-05 -0.000121945 0.000231843 3.37746e-05 0.000201692 -0.000143421 0.0233923 0.00210827 0.0427496 0.004 300 0 
718 1 1 0.0413199 0.0203649 0.00393002 0 0 0 -3.48758e-05 0.000135541 4.55298e-05 0.000101455 -2.63468e-05 -2.47961e-05 -0.0281241 0.00196193 -0.0472523 0.004 300 0 
101 1 1 -0.0371146 0.0272995 0.00390403 0 0 0 0.000107502 0.00011571 -1.93667e-05 -9.98017e-06 -5.16524e-05 -4.6302e-06 -0.0207581 0.0229087 0.0301778 0.004 300 0 
246 1 1 -0.0290562 0.0272809 0.00398282 0 0 0 7.45533e-05 0.000124605 5.49423e-05 -0.000348107 -0.000298187 -0.000327543 -0.0126689 0.00177406 0.0590593 0.004 300 0 
331 1 1 -0.0212278 0.0257798 0.00390041 0 0 0 8.19373e-05 6.04704e-05 0.000178629 -0.000205249 0.00017014 -0.000113138 0.00846451 -0.0277704 -0.0496098 0.004 300 0 
846 1 1 -0.0134706 0.0274169 0.0039747 0 0 0 0.000363059 -0.000285441 0.000299178 -0.000103568 0.000137983 0.000233595 0.109644 0.0785296 -0.0616141 0.004 300 0 
348 1 1 -0.00329946 0.0260618 0.00393388 0 0 0 -3.63603e-05 7.79461e-05 0.000240994 -0.000155351 9.65071e-05 8.33904e-05 -0.0391567 -0.0158992 -0.123439 0.004 300 0 
786 1 1 0.00840284 0.0281546 0.00389682 0 0 0 7.48893e-05 -0.000163935 0.000249415 0.000152396 0.000166143 -3.08676e-05 0.0283245 0.011163 -0.0738001 0.004 300 0 
316 1 1 0.0162825 0.0272924 0.0039064 0 0 0 4.21078e-05 -8.63056e-05 0.00021455 0.000555482 9.91564e-05 -5.98105e-05 -0.0139171 0.000616788 0.0784046 0.004 300 0 
495 1 1 0.0288856 0.0264615 0.00396734 0 0 0 3.58568e-05 -5.4325e-05 0.000140747 0.000183561 -0.000177741 9.30645e-05 0.0455828 0.0384616 -0.0278258 0.004 300 0 
863 1 1 0.036726 0.0277634 0.00392962 0 0 0 1.19667e-06 -7.16773e-05 3.43912e-06 0.000136913 -3.75523e-05 -7.22758e-05 0.00971973 -0.00413249 0.0172345 0.004 300 0 
511 1 1 -0.00761893 0.0327137 0.00388538 0 0 0 0.000320035 -1.88197e-05 0.000204425 -0.000200491 0.000255714 -7.39628e-05 0.0239625 0.0890524 0.0861237 0.004 300 0 
722 1 1 0.00164022 0.0322875 0.00396642 0 0 0 0.00024549 -3.18698e-05 0.000202976 -8.82735e-05 8.30258e-05 7.2888e-05 -0.0138657 0.0029452 0.0316216 0.004 300 0 
2 1 1 0.0229305 0.0316952 0.00396261 0 0 0 -3.46041e-05 8.6658e-05 0.000129442 0.000315376 0.000430091 -9.95584e-05 -0.0641267 -0.00818038 0.020136 0.004 300 0 
254 1 1 0.0306389 0.0342738 0.00398151 0 0 0 0.00326014 0.00110546 -4.58825e-05 2.8691e-07 6.45231e-06 -9.41691e-06 -0.290955 0.82029 -0.36498 0.004 300 0 
257 1 1 -0.0296315 0.0352235 0.00395581 0 0 0 2.4111e-05 4.29193e-05 4.59796e-05 -0.000199591 -0.000238905 7.70209e-05 -0.00870424 0.0180287 -0.0163642 0.004 300 0 
582 1 1 -0.0157649 0.0356209 0.00393233 0 0 0 9.45281e-05 1.75371e-05 0.000320097 -0.000573224 -0.000384702 -0.000435592 -0.00570115 0.0199164 0.0611102 0.004 300 0 
255 1 1 -0.00267124 0.038932 0.00391192 0 0 0 0.000177246 -3.69296e-05 9.1237e-05 -0.000448475 0.000241552 -6.36547e-06 0.00413531 0.0496381 -0.0181988 0.004 300 0 
887 1 1 0.00812068 0.0373183 0.00392879 0 0 0 0.000304555 1.73291e-05 0.000283736 -8.29757e-05 -0.00029607 8.40881e-05 -0.0206469 0.0931826 0.0379388 0.004 300 0 
719 1 1 0.0157849 0.0351949 0.00398378 0 0 0 3.9875e-05 1.41815e-05 2.31758e-05 0.000322305 0.000106683 2.08112e-05 -0.0117071 -0.000394104 -0.0606992 0.004 300 0 
21 1 1 0.0234245 0.0396333 0.00391513 0 0 0 1.15064e-05 -4.49834e-05 -1.03698e-05 0.000351934 0.000168874 -0.000208444 0.0234555 -0.0071707 -0.0295579 0.004 300 0 
325 1 1 -0.0222386 0.0402986 0.00393939 0 0 0 0.00011948 5.03624e-05 7.09296e-05 -0.00021421 -0.000295532 -0.000130376 -0.0170121 0.0246485 0.0533301 0.004 300 0 
595 1 1 -0.014931 0.0435394 0.00398255 0 0 0 -5.82695e-06 6.93431e-05 0.000121244 1.91588e-06 -0.000337327 -4.7133e-05 -0.0412217 -0.0101959 -0.0252768 0.004 300 0 
568 1 1 0.0162912 0.0430934 0.00392626 0 0 0 0.000146295 1.74569e-05 2.37062e-05 6.81109e-05 -4.87271e-06 0.000140231 -0.00504502 0.0227927 0.0228189 0.004 300 0 
387 1 1 -0.00719692 0.0454867 0.00389975 0 0 0 0.000116465 -3.55164e-05 0.000114902 -0.000139571 0.00023152 -0.000182916 -0.000235155 0.0251034 0.00707644 0.004 300 0 
852 1 1 0.000758883 0.0460616 0.00397624 0 0 0 8.96327e-05 -4.67875e-05 4.73652e-05 -1.17853e-06 4.89106e-05 6.58075e-06 -0.00245405 -0.0194471 0.0109062 0.004 300 0 
157 1 1 0.00865317 0.0452494 0.00389812 0 0 0 0.000129494 -9.1133e-05 9.35425e-05 -9.70352e-05 -0.000176066 7.68418e-05 0.0174047 0.0251947 0.0189461 0.004 300 0 
400 1 1 -0.0247518 -0.0387962 0.00974548 0 0 0 -8.28633e-05 -1.1406e-05 4.38775e-05 0.000119139 -0.000310165 4.18714e-05 0.0319098 0.0420279 -0.018988 0.004 300 0 
606 1 1 -0.00065506 -0.0387265 0.00813725 0 0 0 0.000166482 1.39284e-05 1.43842e-05 4.38133e-05 -5.69776e-05 -0.000207816 -0.0385403 0.0461288 -0.0172787 0.004 300 0 
724 1 1 -0.0339139 -0.03116 0.00984857 0 0 0 -4.24274e-05 -4.75211e-06 -7.77445e-06 8.79432e-05 -2.75959e-05 -0.000193733 0.00284133 -0.00479164 -0.000139922 0.004 300 0 
183 1 1 0.0251945 -0.0311657 0.00751762 0 0 0 0.000165581 -6.44722e-05 -1.02489e-05 0.000231963 2.27436e-05 9.8461e-06 -0.0174039 -0.026736 0.0143446 0.004 300 0 
544 1 1 -0.0140218 -0.0253028 0.00875301 0 0 0 -5.38817e-05 -0.000125806 -0.000214352 -0.000185228 2.27098e-06 -0.000329186 -0.0253652 0.00560585 -0.0299909 0.004 300 0 
29 1 1 -0.00450793 -0.0263786 0.00900575 0 0 0 0.000101738 -0.0003346 -0.000295935 0.000258046 0.00022215 0.000151975 -0.00342197 0.0352149 -0.100052 0.004 300 0 
248 1 1 0.00349902 -0.0278404 0.0076304 0 0 0 4.24125e-05 2.81708e-05 1.81071e-05 9.40971e-05 -2.29901e-05 0.000462707 0.0163402 0.0384364 0.0152573 0.004 300 0 
79 1 1 0.035838 -0.0289475 0.0095988 0 0 0 0.000124172 7.53155e-05 4.53053e-05 0.00020635 -2.85122e-06 -6.44379e-05 -0.0230448 0.0321552 0.00809353 0.004 300 0 
291 1 1 -0.00458981 -0.0173965 0.00909553 0 0 0 -0.000144012 -0.000115775 -0.000344329 -8.79809e-05 -0.000171697 -7.71115e-05 -0.0636216 -0.0920236 -0.0461311 0.004 300 0 
891 1 1 0.00373441 -0.0155262 0.00632505 0 0 0 -9.52866e-05 -0.000204593 -0.000138425 4.01728e-05 0.000200906 0.000295537 -0.0289543 -0.0342035 -0.0081983 0.004 300 0 
870 1 1 0.0138339 -0.0156337 0.00831285 0 0 0 9.98454e-06 -0.00013888 0.000169596 -0.000199886 -3.80875e-05 0.000436809 -0.0851394 0.0208617 -0.00818242 0.004 300 0 
777 1 1 0.0349635 -0.0187871 0.00772367 0 0 0 -0.000100605 2.56679e-05 0.000154668 0.000297295 0.000119642 -5.86558e-05 0.0452215 -0.0165581 0.0697854 0.004 300 0 
837 1 1 -0.0294507 -0.0146716 0.00803052 0 0 0 -9.82415e-05 -8.27813e-05 9.60006e-05 8.74556e-05 0.000233514 -6.2992e-05 0.0440844 0.0184899 0.00326567 0.004 300 0 
445 1 1 -0.018135 -0.0138514 0.00995288 0 0 0 -0.000326042 -0.000411265 2.87353e-05 0.000318007 0.000229445 -0.000153557 -0.00149865 -0.0557149 -0.116837 0.004 300 0 
783 1 1 0.00486167 -0.00860538 0.00993927 0 0 0 -6.02386e-05 -0.000344756 -0.000144501 -0.000292624 0.000324275 0.000219965 -0.00327711 -0.0165684 -0.0388206 0.004 300 0 
615 1 1 -0.0350992 -0.000758957 0.00955146 0 0 0 -0.000145733 0.000160855 -4.71883e-05 -0.000136568 0.000165263 -0.000195962 0.00409988 -0.00508091 0.0165563 0.004 300 0 
476 1 1 -0.0459517 0.00262055 0.00988914 0 0 0 -4.45031e-05 9.65879e-05 -1.74844e-05 -8.01084e-05 5.44983e-05 -0.000155094 -0.0198587 -0.00891154 -0.000790088 0.004 300 0 
16 1 1 -0.0210442 0.00169468 0.00831024 0 0 0 -0.000131293 -7.74424e-05 -5.86294e-05 4.50042e-06 0.000419542 8.04011e-07 -0.0241398 0.0105853 -0.0102974 0.004 300 0 
303 1 1 0.0459482 0.00350392 0.00962693 0 0 0 -2.46921e-05 0.000170831 9.15431e-05 7.33009e-05 -9.19083e-05 -0.000130611 -0.0707339 0.00877144 -0.0406153 0.004 300 0 
523 1 1 -0.0389794 0.00803056 0.0093284 0 0 0 -8.62045e-05 0.000182828 -5.04491e-05 -0.000123691 -4.02801e-05 -0.000178456 0.00651059 -0.0334572 -0.0201592 0.004 300 0 
704 1 1 -0.0107974 0.00519295 0.00743892 0 0 0 -1.30338e-05 -0.000183981 -0.000171457 8.40543e-05 0.000739949 -7.70311e-05 0.0334602 0.000514848 -0.00670368 0.004 300 0 
454 1 1 0.00101225 0.00716018 0.00934099 0 0 0 0.000135822 -0.000299711 0.000168418 4.47938e-06 0.000143494 -0.000183825 0.00854754 -0.0162056 -0.0476096 0.004 300 0 
31 1 1 0.0102163 0.00547638 0.00832795 0 0 0 0.000139759 -0.000238294 -3.03117e-05 9.72155e-05 6.9285e-06 4.49603e-05 0.0126079 0.0242822 -0.0263592 0.004 300 0 
135 1 1 0.0188883 0.00749221 0.00961013 0 0 0 -9.48986e-05 -0.000275516 -3.4409e-05 2.43449e-05 9.66103e-05 -6.20059e-05 -0.0255524 -0.00873606 0.0229226 0.004 300 0 
712 1 1 0.0281128 0.00743362 0.00999123 0 0 0 -0.000183011 -2.43531e-05 -3.86147e-06 5.5801e-05 3.38363e-06 -0.000219763 -0.0226045 -0.0697018 -0.0510659 0.004 300 0 
210 1 1 0.039492 0.00814561 0.00989971 0 0 0 -9.35754e-05 7.4536e-06 0.000248305 7.2571e-05 -0.000243358 -0.000318057 0.00473063 0.0693994 0.0560209 0.004 300 0 
651 1 1 -0.0437987 0.0143397 0.00823557 0 0 0 8.57037e-08 8.61358e-05 -8.09388e-05 -6.02719e-05 -4.88989e-05 -3.63001e-05 -0.011695 -0.00229769 0.0111881 0.004 300 0 
621 1 1 0.043718 0.0147838 0.00900796 0 0 0 -0.000129013 3.63231e-05 0.000113944 3.38568e-05 -0.000131225 -0.000118737 -0.010066 0.0196913 -0.0192464 0.004 300 0 
726 1 1 -0.0257654 0.0199973 0.0069287 0 0 0 9.3541e-05 5.09133e-05 0.000169305 6.73106e-06 0.00018781 6.95055e-06 0.00866749 0.0390997 0.0212995 0.004 300 0 
230 1 1 -0.00847445 0.0245954 0.00973792 0 0 0 -0.000175131 -0.000119168 0.000677878 -0.000139951 -0.000202937 -0.000133927 0.0785354 0.0515716 0.0938848 0.004 300 0 
320 1 1 -0.00171272 0.0204053 0.00979454 0 0 0 -9.98186e-05 -8.90332e-05 0.000295224 -0.000312336 -0.000580444 -0.000320815 0.0354573 -0.0236888 -0.0145086 0.004 300 0 
7 1 1 0.0129198 0.0224303 0.00918612 0 0 0 0.000141515 -0.000215168 0.000431124 0.000396624 0.000232435 -0.000364483 -0.00173771 -0.0593752 -0.0126365 0.004 300 0 
83 1 1 0.0214159 0.0239655 0.00888439 0 0 0 4.19516e-05 -5.97651e-05 0.00026005 0.0010145 -0.000352828 -0.0002424 0.0340917 -0.00377403 -0.026064 0.004 300 0 
747 1 1 -0.0337316 0.0313838 0.00974043 0 0 0 0.000207697 8.09759e-05 -1.2998e-05 -4.01909e-05 -0.000165253 0.000186814 0.0391595 0.00883621 0.0106775 0.004 300 0 
51 1 1 -0.0226185 0.0329659 0.00703465 0 0 0 0.000148861 1.82163e-05 0.000256816 -0.000294955 -0.000316155 -0.000442188 -0.0134965 -0.0564833 -0.0322909 0.004 300 0 
116 1 1 -0.00940645 0.0391194 0.00810078 0 0 0 9.88067e-05 9.18631e-05 0.000213756 -0.000465721 0.000268234 -0.000487832 -0.0765176 -0.0391036 0.0248167 0.004 300 0 
205 1 1 -0.000559959 -0.0460776 0.0110172 0 0 0 0.000145874 7.02414e-05 0.000107898 -0.000210198 -9.66797e-05 -0.000564858 0.0189252 0.0795228 -0.0259889 0.004 300 0 
836 1 1 0.00737937 -0.0454689 0.0106572 0 0 0 0.000126026 0.00011607 -8.45058e-05 -0.00010872 0.000126456 -1.20403e-05 -0.00610109 -0.0413626 -0.0136714 0.004 300 0 
486 1 1 -0.0157027 -0.040233 0.0103407 0 0 0 -0.000186315 -5.02424e-05 0.000101185 -1.37497e-05 0.000691418 -5.09176e-05 -0.0438337 0.0018101 -0.167322 0.004 300 0 
311 1 1 -0.00836952 -0.0439981 0.01068 0 0 0 0.000315929 0.000342804 3.02469e-05 -0.000563461 -0.000347856 -0.00071832 -0.152521 0.0535577 0.10823 0.004 300 0 
447 1 1 0.0180535 -0.0423882 0.0118317 0 0 0 0.000233477 0.00013364 9.78257e-05 0.00020275 0.000176879 0.000215869 0.0468014 -0.0249956 -0.0302443 0.004 300 0 
538 1 1 -0.0295738 -0.0353505 0.0149867 0 0 0 -0.00012714 -4.60768e-05 7.21677e-05 9.31926e-05 -0.000301997 -6.03201e-05 -0.001581 -0.0408017 0.0131144 0.004 300 0 
279 1 1 0.0111533 -0.0385412 0.011412 0 0 0 0.000348085 0.000256906 -7.91651e-05 0.000233528 9.04774e-05 0.000229264 -0.0279611 0.0107944 -0.00654328 0.004 300 0 
110 1 1 0.0250447 -0.0386631 0.0117248 0 0 0 0.000221264 8.25776e-05 3.95327e-05 0.000184527 0.000148179 0.000107242 -0.0296497 0.0707473 -0.0121446 0.004 300 0 
188 1 1 -0.0179031 -0.0321019 0.010161 0 0 0 -0.000145586 -2.65192e-05 -8.73156e-05 -1.43499e-05 -0.00031211 -0.00027087 -0.0410795 -0.0263185 0.0045814 0.004 300 0 
810 1 1 -0.0102629 -0.0344488 0.0102038 0 0 0 -2.18364e-05 -6.21764e-07 -0.000166505 0.000324486 0.000211912 -0.000203845 -0.0841318 0.0285503 -0.0238542 0.004 300 0 
412 1 1 -0.00316991 -0.0328807 0.0133492 0 0 0 0.000297262 1.18335e-06 -0.00035985 0.000558791 0.000164339 0.000408138 -0.0861749 -0.0396764 0.0023686 0.004 300 0 
545 1 1 0.0045187 -0.0343075 0.0121896 0 0 0 0.000307335 0.000186472 -0.000104949 0.000347793 0.000189978 0.000328474 0.00567731 -0.0056549 0.0379202 0.004 300 0 
100 1 1 0.011505 -0.0305921 0.0117051 0 0 0 0.000290831 0.000260611 -0.000112677 0.000205463 0.000305631 0.000167778 -0.0221512 0.0228425 -0.000578926 0.004 300 0 
556 1 1 0.018365 -0.0344774 0.010925 0 0 0 0.000274735 0.000115674 0.000111447 0.000258882 0.000368771 0.000178408 -0.0691895 -0.018291 -0.0032202 0.004 300 0 
32 1 1 0.0311331 -0.033959 0.0134818 0 0 0 0.000206053 8.52358e-05 -3.2716e-05 0.00037567 -2.51171e-06 0.000150684 0.0384979 -0.0590983 -0.0239224 0.004 300 0 
5 1 1 -0.038674 -0.0250113 0.0114434 0 0 0 -8.19018e-05 -3.42012e-06 7.29545e-07 -5.89428e-05 4.07472e-05 -0.000271612 -0.00120722 -0.00829556 0.00795277 0.004 300 0 
415 1 1 -0.0253865 -0.0293595 0.0104107 0 0 0 -0.000116983 0.000119183 0.000199779 -0.000110873 -0.000355102 4.2404e-05 -0.0740227 -0.0376845 -0.0536331 0.004 300 0 
446 1 1 -0.00968629 -0.0280485 0.0148353 0 0 0 -8.96364e-05 8.19991e-06 -0.00042397 0.0003912 0.000349596 -0.000162364 0.059968 -0.0109639 -0.00815799 0.004 300 0 
814 1 1 0.019077 -0.0262834 0.0103736 0 0 0 0.000318567 3.16407e-05 6.14879e-05 0.000150299 0.00019324 0.000148481 -0.0659072 0.0183227 0.0899375 0.004 300 0 
24 1 1 0.0289655 -0.0255372 0.0115718 0 0 0 2.80653e-05 4.41695e-05 1.83866e-05 0.000268646 -0.000114616 -8.58521e-06 -0.0042005 -0.0129282 0.0199456 0.004 300 0 
266 1 1 -0.0293331 -0.0224288 0.0104512 0 0 0 -5.08099e-05 5.58253e-06 7.12697e-05 7.31255e-06 -5.17141e-05 -0.00011864 0.000128775 0.0123739 0.0238694 0.004 300 0 
487 1 1 -0.0208101 -0.0214229 0.010242 0 0 0 -0.000158469 -0.000142071 1.84114e-05 -0.000456437 -0.000270061 -2.7903e-05 0.0195661 -0.0234397 0.0173164 0.004 300 0 
655 1 1 0.00191958 -0.0211531 0.0115782 0 0 0 -0.00012412 -2.20953e-05 1.79577e-05 0.000154908 6.84255e-05 0.000585268 -0.018599 0.00974003 0.0518701 0.004 300 0 
243 1 1 0.0112842 -0.0227115 0.010892 0 0 0 8.33444e-05 6.44482e-05 4.63412e-05 -0.000258269 0.000210468 0.000566174 0.0492423 -0.0840655 0.0451491 0.004 300 0 
528 1 1 0.0400445 -0.0227781 0.0122821 0 0 0 3.05255e-05 9.86576e-05 -1.03715e-05 0.00022376 3.22872e-05 -0.000219881 0.0373602 -0.00632147 0.0213302 0.004 300 0 
356 1 1 -0.0361818 -0.0175071 0.0110145 0 0 0 -7.88292e-05 -6.49031e-05 6.84447e-05 -0.000154562 0.000150571 -0.000340355 0.00852769 -0.00338577 -0.0270424 0.004 300 0 
739 1 1 -0.0119216 -0.0183456 0.0119036 0 0 0 -0.000192752 -0.000386205 -0.000355091 -3.52877e-05 3.91797e-05 -0.000444276 0.0707 0.108879 0.140534 0.004 300 0 