ITEM: TIMESTEP
13600
ITEM: NUMBER OF ATOMS
891
ITEM: BOX BOUNDS mm mm mm
-0.05 0.05
-0.05 0.05
0 0.15
ITEM: ATOMS id type type x y z ix iy iz vx vy vz fx fy fz omegax omegay omegaz radius f_Temp[0] f_heatFlux[0] 
199 1 1 -0.00444399 -0.0458159 0.00397446 0 0 0 -0.000116534 4.65012e-05 1.33367e-05 0.000144618 -0.000148492 -7.19868e-05 0.00755265 -0.0228887 0.0466414 0.004 300 0 
873 1 1 -0.0201488 -0.0414788 0.00390186 0 0 0 0.000101693 -0.000129298 -1.17576e-05 0.000161442 -4.0368e-05 1.83325e-05 0.0166283 0.034656 -0.0343949 0.004 300 0 
485 1 1 -0.01268 -0.0442532 0.00397303 0 0 0 -3.52383e-05 4.02415e-06 -9.75195e-06 3.79185e-05 -1.01755e-06 -9.21863e-05 -0.0111925 -0.0277106 0.0398338 0.004 300 0 
850 1 1 0.00335581 -0.0441751 0.00394042 0 0 0 -0.000110474 1.82338e-05 5.82978e-05 0.000480117 -0.000384364 -0.000392639 0.00299473 -0.00607677 -0.0829076 0.004 300 0 
186 1 1 0.0114404 -0.0445989 0.00392761 0 0 0 -4.32995e-05 -9.56296e-06 -1.41711e-05 0.000347504 -0.000169263 8.81048e-05 0.000705418 -0.0180531 0.0052441 0.004 300 0 
560 1 1 0.0189687 -0.0420004 0.00394674 0 0 0 7.38581e-06 -1.16728e-05 -3.50531e-05 2.3321e-05 -0.000106046 1.39971e-05 -0.00326822 0.0184931 0.0012494 0.004 300 0 
102 1 1 -0.0147505 -0.0357323 0.00386385 0 0 0 0.00012413 -0.000142578 -2.74711e-05 0.000213173 -4.57115e-05 -0.00016334 0.0403508 0.0233214 0.0557571 0.004 300 0 
88 1 1 -0.00730835 -0.0383841 0.00392797 0 0 0 2.45735e-06 4.99519e-05 -3.0189e-05 0.00024867 -5.53156e-05 -0.000181762 -0.018228 -0.00755391 -0.0240434 0.004 300 0 
776 1 1 0.00520334 -0.0354363 0.00395034 0 0 0 -1.3852e-06 0.000109762 7.93642e-05 0.000162905 -0.000664396 -8.85781e-05 -0.042469 0.0268386 -0.0139444 0.004 300 0 
410 1 1 0.0130234 -0.0368128 0.00392534 0 0 0 -4.69944e-05 -4.56866e-06 -4.67391e-05 0.000136976 -0.000171016 0.000120693 -0.00569548 -0.0136887 -0.00657585 0.004 300 0 
282 1 1 0.0258761 -0.0381315 0.0038853 0 0 0 2.32507e-07 -6.60321e-05 -3.94507e-05 -0.000208092 -5.41262e-05 0.000125537 0.0114731 -0.010643 -0.00487273 0.004 300 0 
682 1 1 -0.0302007 -0.0348787 0.00393547 0 0 0 1.7771e-05 3.43746e-05 -1.05529e-05 0.000165398 -0.000277687 6.24369e-05 0.0306226 0.0435466 -0.00375925 0.004 300 0 
251 1 1 -0.0224182 -0.0338471 0.00392583 0 0 0 5.94952e-05 -0.00013403 -9.0692e-05 0.000137574 -0.000250582 -3.07044e-05 -0.00471268 -0.0184272 -0.0273931 0.004 300 0 
770 1 1 -0.00204751 -0.0321407 0.00393932 0 0 0 5.40964e-05 0.000131743 -4.57383e-05 0.000294066 -0.000137441 2.71158e-06 -0.0770194 0.0211931 -0.0215672 0.004 300 0 
883 1 1 0.0181656 -0.0307531 0.00390023 0 0 0 1.01424e-05 -0.000118042 -0.000119643 -0.000119069 9.62722e-05 0.000115397 0.0094662 0.0102042 -0.0221161 0.004 300 0 
838 1 1 0.0320342 -0.0331087 0.00396099 0 0 0 4.31854e-05 -6.87953e-05 -4.53304e-05 -0.000214718 -9.3836e-05 0.000283631 -0.00596617 0.00609347 -0.00532618 0.004 300 0 
617 1 1 -0.0372513 -0.0271222 0.00391729 0 0 0 -1.1805e-05 7.47789e-06 -3.11032e-05 1.18531e-05 -0.000148049 -8.81982e-05 -0.00333713 0.00310829 0.0175104 0.004 300 0 
824 1 1 -0.029298 -0.0270312 0.00393034 0 0 0 -6.02921e-05 0.000124717 -6.07521e-06 0.000311388 -0.000343734 5.37147e-05 -0.026789 -0.00724085 0.0206395 0.004 300 0 
571 1 1 -0.0202608 -0.0262209 0.0039344 0 0 0 5.79586e-07 -4.91734e-05 -0.000110679 9.88668e-05 -0.000150074 -0.000126746 0.0104359 0.0349849 0.0560131 0.004 300 0 
861 1 1 -0.00959268 -0.0297296 0.0038983 0 0 0 5.09883e-05 5.14702e-05 -4.14742e-05 0.000147717 -0.000136128 0.000119151 -0.00839129 0.0161739 0.0136731 0.004 300 0 
434 1 1 0.0103452 -0.0293802 0.00393708 0 0 0 6.94053e-05 1.03639e-05 -9.18669e-05 -9.84978e-05 -0.00032251 9.15938e-05 0.00409982 0.00328279 -0.0137288 0.004 300 0 
103 1 1 0.0311553 -0.0252348 0.00394322 0 0 0 3.3485e-05 -0.000124326 -0.000134524 -0.000241674 -0.00016075 0.000150818 0.00679413 -0.0181149 0.0319739 0.004 300 0 
769 1 1 -0.0413436 -0.020282 0.00398283 0 0 0 -9.37416e-05 -2.87682e-05 -8.72687e-05 0.000100637 -0.00017672 0.000137597 -0.0117233 0.00476674 0.0113809 0.004 300 0 
94 1 1 -0.0333711 -0.0202184 0.0039428 0 0 0 -0.000143118 9.37185e-05 -9.77446e-05 8.95366e-05 -0.000400416 -6.38989e-05 -0.0127797 -0.0042855 0.0158503 0.004 300 0 
40 1 1 -0.0253999 -0.0201456 0.00391735 0 0 0 -0.00015863 5.74958e-05 -1.87091e-06 0.000150907 -9.80856e-05 -0.000166274 0.00514952 -0.0343429 -0.0112878 0.004 300 0 
19 1 1 -0.00865044 -0.02188 0.00394045 0 0 0 8.36788e-05 0.000146109 -6.04379e-05 2.22588e-05 -5.29484e-05 -0.000187648 0.0174744 0.0268047 -0.00592041 0.004 300 0 
442 1 1 -0.000436699 -0.0218503 0.00393687 0 0 0 6.94599e-05 8.28935e-05 -0.000139557 -8.93639e-05 -2.69504e-05 -0.000528637 0.0090581 -0.00323974 0.0015624 0.004 300 0 
259 1 1 0.00753219 -0.0219989 0.00392459 0 0 0 4.11933e-05 -4.89671e-06 -7.23489e-05 -0.000186896 -0.000213261 -0.000217079 0.0148276 -0.00607039 7.98146e-05 0.004 300 0 
512 1 1 0.0153885 -0.0232354 0.00397806 0 0 0 0.000128232 -3.68092e-05 -0.00016177 -0.000277192 2.51727e-05 0.000131577 -0.00767222 0.0340686 -0.00909485 0.004 300 0 
470 1 1 0.023262 -0.0243597 0.00390819 0 0 0 7.45532e-05 -0.000182024 -0.000218403 -0.000233028 -3.40884e-05 0.000162632 0.0318568 0.000498593 -0.026527 0.004 300 0 
451 1 1 0.0390295 -0.0244868 0.00392085 0 0 0 3.21668e-05 -3.45504e-05 -3.57303e-05 -9.83658e-05 -9.79714e-05 -4.04066e-05 0.00290001 -0.00442867 -0.00626298 0.004 300 0 
531 1 1 -0.0164595 -0.0191998 0.00396115 0 0 0 -0.000105169 6.24178e-05 -0.000109054 0.000449647 -0.000177686 -9.42777e-05 0.0147322 -0.0577718 -0.0273085 0.004 300 0 
229 1 1 0.0202059 -0.0169135 0.00386908 0 0 0 9.45921e-05 -8.97234e-05 -0.000313452 -9.37108e-05 5.36782e-05 0.000126404 0.0142264 -0.0163919 0.0019988 0.004 300 0 
734 1 1 0.028053 -0.0179432 0.00394383 0 0 0 8.37162e-05 -0.000165647 -0.00020759 -0.00022154 -0.000223655 0.000269355 0.0108129 0.00656562 -0.0375503 0.004 300 0 
635 1 1 0.0425978 -0.0174484 0.00392242 0 0 0 4.8089e-05 -9.06159e-06 -1.41116e-05 -0.000120594 -6.51922e-05 9.10251e-05 0.0120521 0.0135745 0.00962687 0.004 300 0 
87 1 1 -0.0448205 -0.0104684 0.00391451 0 0 0 -0.000120934 0.000162789 8.5486e-06 -8.94515e-05 -7.14265e-05 -9.68017e-06 -0.039002 -0.0236601 -0.0715992 0.004 300 0 
406 1 1 -0.0373926 -0.0133914 0.00396075 0 0 0 -0.000246741 -2.82113e-05 4.67341e-05 0.00030202 -0.000123743 -0.000180642 0.0433018 -0.0331668 0.0246072 0.004 300 0 
224 1 1 -0.0230575 -0.0126013 0.0038788 0 0 0 -6.68825e-05 0.000109207 0.00014077 3.90675e-05 -7.17155e-05 -0.00016133 -0.00541776 -0.0394779 -0.0277443 0.004 300 0 
751 1 1 -0.0103003 -0.0141545 0.00396866 0 0 0 4.72755e-05 0.000211014 0.00022291 0.000301476 -0.000163457 -4.53916e-05 0.0103351 -0.00102607 0.0187409 0.004 300 0 
622 1 1 -0.00273455 -0.0117413 0.00388444 0 0 0 3.37402e-05 0.000234183 6.4246e-05 0.000242103 0.000122756 1.73127e-05 -0.0358287 0.0387936 -0.0408683 0.004 300 0 
128 1 1 0.00951282 -0.0106874 0.00388337 0 0 0 -1.02808e-05 -9.11572e-05 -0.000339142 0.000201326 9.05883e-05 -3.16126e-05 0.0130297 0.00502795 -0.0409207 0.004 300 0 
68 1 1 0.0262843 -0.010212 0.0039543 0 0 0 -7.03965e-05 -0.000192292 -0.000114445 1.44146e-06 0.000236845 0.000372584 0.0345776 -0.0385106 0.0741989 0.004 300 0 
791 1 1 0.034095 -0.0118694 0.00392761 0 0 0 0.00017312 -0.000175793 -0.000195055 -0.000143316 8.17922e-05 0.000354814 0.0398615 0.0564797 -0.0793047 0.004 300 0 
354 1 1 -0.0380776 -0.00550436 0.00392101 0 0 0 0.000172815 4.27566e-05 0.00016121 0.000107598 2.11148e-05 -0.00027454 -0.00749916 0.0326025 -0.145723 0.004 300 0 
725 1 1 -0.0304928 -0.00800079 0.00392456 0 0 0 0.000108089 -0.000245524 2.06216e-05 0.000249727 7.41509e-05 -4.34432e-05 0.0379586 0.019283 0.0296444 0.004 300 0 
353 1 1 -0.0161287 -0.00879697 0.00391 0 0 0 6.33463e-05 0.000175368 0.000204574 0.000160738 -0.000156859 -2.83224e-05 -0.0498636 0.0144128 0.00330856 0.004 300 0 
391 1 1 -0.00857631 -0.00639774 0.00391202 0 0 0 9.91953e-06 0.000246575 0.000155839 -0.000199153 -0.000121417 0.000104606 -0.0181351 -0.00814513 0.0151122 0.004 300 0 
683 1 1 0.0173554 -0.0094562 0.00390977 0 0 0 -6.69066e-05 -0.000143155 -0.000185894 7.29796e-05 6.77741e-06 0.000167346 0.0476618 -0.0334194 0.0513946 0.004 300 0 
690 1 1 0.0385542 -0.00520203 0.00389997 0 0 0 -7.40277e-05 1.9756e-05 -0.000152999 -0.00029206 0.000392575 0.000579904 -0.0226826 -0.00242241 0.0978439 0.004 300 0 
10 1 1 0.0449638 -0.00990859 0.00397355 0 0 0 1.51917e-05 0.000104541 -2.05736e-05 -0.000181636 0.000116437 0.000212363 -0.0260055 -0.00442179 -0.0136594 0.004 300 0 
402 1 1 -0.0460157 -0.00264492 0.00392288 0 0 0 -3.80403e-05 8.69096e-05 5.34834e-05 -5.6583e-05 -0.000156406 -0.000261781 0.014541 -0.0126608 0.0430284 0.004 300 0 
761 1 1 -0.0294729 -0.000165812 0.00392605 0 0 0 8.66746e-05 -0.000102861 0.000152579 -0.000123906 -0.000104325 -0.000571683 0.023847 -0.000666859 0.00286221 0.004 300 0 
293 1 1 -0.0229305 -0.00466684 0.00395922 0 0 0 0.000202785 0.000101759 9.75695e-05 0.000201803 0.000246276 -0.000483171 -0.0201959 0.0383476 -0.01042 0.004 300 0 
384 1 1 -0.0146583 -0.000932571 0.00398149 0 0 0 0.00302752 0.00141876 2.59557e-05 1.6946e-05 0.000105736 8.60728e-06 -0.337201 0.756304 0.684008 0.004 300 0 
378 1 1 0.00130877 -0.00490594 0.00392846 0 0 0 0.000187362 0.000168153 -0.000129442 0.000282202 -2.15303e-05 5.24133e-08 -5.90124e-05 0.0680595 -0.00258609 0.004 300 0 
390 1 1 0.0103722 -0.00276719 0.00396812 0 0 0 0.000104436 -9.0786e-05 -0.000187042 -2.68935e-05 7.48846e-06 7.97633e-05 0.0427656 -0.0188745 0.0204046 0.004 300 0 
411 1 1 0.0223643 -0.00329362 0.00397521 0 0 0 -5.33645e-05 -0.000168626 4.06391e-05 -9.37964e-05 -0.000123786 0.000666257 0.0243318 0.0272874 -0.108638 0.004 300 0 
342 1 1 0.0307351 -0.00361598 0.00397425 0 0 0 -4.27951e-05 -0.000218382 2.59689e-05 7.0697e-05 0.000291644 0.000520676 -0.0397094 0.00716617 -0.0743354 0.004 300 0 
262 1 1 0.0460225 -0.0020654 0.00395804 0 0 0 -1.58277e-05 7.30349e-05 8.01229e-05 -0.000151694 -2.48851e-05 -3.62844e-05 0.0249934 -0.0119647 -0.00258616 0.004 300 0 
261 1 1 -0.0398213 0.00224607 0.00393518 0 0 0 9.06816e-06 7.25436e-05 0.000208193 -0.000310777 0.000158094 -0.000335832 -0.00433216 -0.0222045 0.00551333 0.004 300 0 
666 1 1 -0.00454361 0.000450184 0.00395439 0 0 0 2.16996e-05 0.000118287 5.05088e-05 -0.000209914 -4.51847e-05 -1.54764e-05 -0.0437425 -0.0132501 0.0179494 0.004 300 0 
815 1 1 0.00434565 0.00243462 0.00392742 0 0 0 0.000343289 -0.000110516 -8.67344e-05 3.22592e-05 -0.000225539 -0.000172221 0.0342539 0.0600719 -0.0558374 0.004 300 0 
306 1 1 0.0163716 0.00247525 0.00395706 0 0 0 0.000132085 -1.26076e-06 6.58679e-05 -0.000152123 -5.81471e-05 0.000168349 -0.0322987 0.00592284 -0.0227517 0.004 300 0 
178 1 1 0.0241056 0.00444119 0.00385986 0 0 0 0.00023841 -0.00026097 0.000108954 -0.00047291 -0.000201358 0.000710507 0.0108974 0.0255624 -0.0082322 0.004 300 0 
862 1 1 0.032066 0.00423441 0.00392966 0 0 0 0.000229023 -0.000151544 2.52151e-05 -0.000375272 0.000190461 0.00061393 0.0253653 0.0197932 0.017952 0.004 300 0 
661 1 1 0.0398755 0.00291338 0.00394643 0 0 0 0.000140047 8.86362e-05 7.34488e-05 -0.000326948 0.000122371 0.000352721 -0.0382216 0.0156713 0.00175878 0.004 300 0 
677 1 1 -0.045378 0.00788538 0.0039365 0 0 0 -1.50805e-05 -1.8573e-05 0.000113103 -0.000410646 -2.2244e-07 -0.000274941 -7.46774e-05 -0.0125655 -0.00701757 0.004 300 0 
12 1 1 -0.0333154 0.00672015 0.00393683 0 0 0 0.000148452 3.84916e-05 0.000155092 -7.84286e-05 -0.000171002 -0.000385798 -0.0472423 0.0273317 -0.0169121 0.004 300 0 
420 1 1 -0.0253979 0.00664934 0.00392683 0 0 0 0.000154316 -7.85564e-06 7.2573e-05 -5.89947e-05 -3.76287e-05 -0.000381689 -0.0129024 0.00870159 0.0107716 0.004 300 0 
654 1 1 -0.0175122 0.00721283 0.00387249 0 0 0 0.000210272 -1.8034e-05 0.000195464 0.000109359 -0.000106002 -0.000736108 -0.0196023 -0.000881752 -0.0322328 0.004 300 0 
145 1 1 -0.0045432 0.00836497 0.00386204 0 0 0 0.000187458 -0.000185199 -0.000123012 0.00031824 -0.000164061 -0.000580188 0.0242306 0.073595 -0.0434401 0.004 300 0 
624 1 1 0.0451457 0.00890541 0.00390569 0 0 0 1.00401e-05 0.000110003 8.98362e-06 -3.38052e-05 -0.000102532 0.00040511 -0.00732477 0.00928008 0.0407124 0.004 300 0 
613 1 1 -0.0372989 0.0135341 0.0038434 0 0 0 0.000115921 3.13744e-05 9.38555e-05 0.000183028 -6.67094e-05 -0.000216881 0.00983383 0.015537 0.0124822 0.004 300 0 
265 1 1 -0.0293057 0.0135434 0.00396382 0 0 0 0.000177568 -0.000132667 6.41908e-05 6.92945e-05 -3.72762e-05 -0.000369511 0.0307974 -0.0112619 -0.0107024 0.004 300 0 
273 1 1 -0.0213695 0.0141285 0.003929 0 0 0 0.000272538 -8.87643e-05 0.000157047 9.77479e-05 6.0428e-05 -5.11546e-05 0.00546753 0.0297495 0.0423556 0.004 300 0 
492 1 1 -0.0114483 0.012373 0.00398076 0 0 0 0.000194705 2.03076e-05 0.000366264 0.000364582 -0.000527317 -0.00102726 0.00354847 -0.00409844 0.0815208 0.004 300 0 
234 1 1 0.00585488 0.0103927 0.00392832 0 0 0 4.39119e-05 4.84212e-05 1.95942e-05 0.000138529 -0.000432946 -0.000305091 0.0352831 0.0175936 -0.0389845 0.004 300 0 
160 1 1 0.0142852 0.010637 0.00390996 0 0 0 0.000223408 0.000140511 -0.00031902 -1.16801e-05 5.96825e-05 -0.000557891 -0.12815 0.0193082 -0.144491 0.004 300 0 
484 1 1 0.0220901 0.0120733 0.00390034 0 0 0 0.000170662 -0.000372683 -5.56623e-05 0.000136858 5.93772e-06 0.000175745 0.0381384 -0.0133837 0.0324494 0.004 300 0 
743 1 1 0.0300194 0.0126213 0.00398063 0 0 0 9.64134e-05 -0.000197878 8.76462e-06 0.000186791 -0.000202201 -0.000320673 0.0350052 -0.00344028 -0.0242698 0.004 300 0 
514 1 1 0.0379552 0.0130173 0.00386783 0 0 0 -2.88672e-05 4.47735e-05 9.35892e-05 5.04543e-05 8.84637e-06 0.000120752 -0.00305198 -0.0154029 0.0849395 0.004 300 0 
530 1 1 -0.0159005 0.0198648 0.00392814 0 0 0 0.000256561 0.00013413 9.37136e-05 0.000627569 2.89122e-05 -0.000132357 -0.0893827 -0.0164016 -0.00595845 0.004 300 0 
227 1 1 -0.00736266 0.019209 0.00396666 0 0 0 7.4645e-05 5.80569e-05 -7.29399e-05 6.99403e-05 -5.76491e-05 -0.000468009 -0.0479829 0.0983147 -0.0428236 0.004 300 0 
392 1 1 -0.000497108 0.0151498 0.00394393 0 0 0 -3.12164e-05 8.51191e-05 -0.000237954 -0.000207941 9.91608e-05 -0.000945767 -0.0728503 -0.0302109 0.0685254 0.004 300 0 
493 1 1 0.00985829 0.0172537 0.00394623 0 0 0 5.40188e-05 5.40062e-05 -0.000152763 -0.000138453 -0.000166284 -0.000920384 -0.0444027 -0.0171319 -0.059798 0.004 300 0 
34 1 1 0.0176358 0.0187851 0.00394009 0 0 0 6.78771e-05 -0.000329424 -0.000100659 0.000106692 -0.000576943 -0.000177147 0.114177 0.0223162 0.00614242 0.004 300 0 
206 1 1 0.0255402 0.019234 0.00396875 0 0 0 5.84076e-05 -0.000163358 -0.000100356 4.39482e-07 8.70708e-05 0.000140218 -0.022578 -0.00120441 0.0297595 0.004 300 0 
104 1 1 0.0334185 0.0199321 0.00389557 0 0 0 2.8038e-05 7.08419e-06 -3.86363e-05 -0.000286517 -8.75715e-05 0.000126466 -0.0290193 -0.00748769 0.00756098 0.004 300 0 
809 1 1 -0.0412058 0.0204949 0.00395484 0 0 0 5.25611e-05 5.16185e-05 8.97704e-05 -0.000254236 -0.000144134 -0.000110614 0.0196423 -0.0181586 -0.0120687 0.004 300 0 
773 1 1 -0.0331521 0.0204536 0.00393516 0 0 0 0.000180418 -0.000212675 0.000100915 -0.000113985 6.86827e-05 -5.86494e-05 0.00359473 0.0505927 -0.0133766 0.004 300 0 
792 1 1 0.00347524 0.0219736 0.00392037 0 0 0 -9.03587e-05 0.000182135 -0.000788587 0.000148151 9.88479e-05 -0.00075807 -0.13176 -0.0449224 0.0331854 0.004 300 0 
718 1 1 0.0413211 0.0203637 0.00392901 0 0 0 -8.55487e-06 3.04064e-05 5.31403e-06 -6.53247e-05 -0.000297771 -5.12092e-05 -0.00985907 -0.0109118 0.0102931 0.004 300 0 
101 1 1 -0.0371147 0.0272999 0.00390363 0 0 0 3.30643e-05 -7.71079e-05 -2.75381e-05 -0.00029845 -8.26808e-05 7.02533e-05 -0.0229082 0.0157836 0.0151229 0.004 300 0 
246 1 1 -0.0290571 0.0272807 0.00398163 0 0 0 0.000199676 -0.000384372 -2.0259e-05 0.000507759 -0.000310089 0.000189785 0.0710999 0.0824714 -0.0109337 0.004 300 0 
331 1 1 -0.0212285 0.0257803 0.00389875 0 0 0 0.00014173 -0.000190424 -0.000311927 0.000227008 -1.49913e-05 0.000348519 0.00685821 0.0221112 0.0735079 0.004 300 0 
846 1 1 -0.0134712 0.0274166 0.00397455 0 0 0 9.64388e-05 0.000335422 -0.000199498 6.6487e-06 0.000478313 2.41032e-05 0.000355508 -0.0747729 0.0967191 0.004 300 0 
348 1 1 -0.00330018 0.026063 0.00393434 0 0 0 -1.69243e-05 7.77875e-05 -0.000476851 -2.90812e-05 -5.42261e-05 -0.000615298 0.0564605 0.0370671 0.0258175 0.004 300 0 
786 1 1 0.00840329 0.0281536 0.003895 0 0 0 0.000117202 0.000162978 -0.000923023 -2.96723e-05 0.000304628 -0.000655211 -0.0322762 0.0245864 -0.0410335 0.004 300 0 
316 1 1 0.0162832 0.027292 0.00390473 0 0 0 4.37098e-05 -0.000248142 -0.000247204 0.000198862 -0.000163155 -0.000552327 0.10687 -0.0743398 -0.00756165 0.004 300 0 
495 1 1 0.0288877 0.0264599 0.00396565 0 0 0 0.000113298 -0.000174131 -9.6665e-05 -4.376e-05 6.95309e-05 -7.50043e-05 0.051913 -0.0259848 -0.0242013 0.004 300 0 
863 1 1 0.0367271 0.0277631 0.0039289 0 0 0 7.62069e-05 -8.28241e-05 2.86495e-05 0.000130968 -3.18096e-05 0.000163085 0.0111183 0.0128759 0.0345849 0.004 300 0 
511 1 1 -0.00762065 0.032715 0.00388607 0 0 0 0.000197798 0.000343911 -0.00022233 -0.000168771 0.000103196 -0.000657544 -0.0577155 0.0355356 -0.131758 0.004 300 0 
722 1 1 0.00164168 0.0322879 0.0039664 0 0 0 0.000171072 0.000280404 -0.00050258 -0.000183512 0.00032678 -0.000859552 -0.0649699 0.0647693 -0.0127561 0.004 300 0 
2 1 1 0.0229327 0.0316935 0.00396057 0 0 0 0.000193989 -0.000151809 -0.000191189 1.90216e-05 0.000354647 -4.62539e-05 -0.00479182 0.0407918 0.0346424 0.004 300 0 
254 1 1 0.030582 0.0342991 0.0039815 0 0 0 0.00250229 -0.00318287 -4.11564e-08 -1.16655e-11 1.70699e-11 -4.7529e-08 0.797562 0.627024 -0.202824 0.004 300 0 
257 1 1 -0.0296327 0.0352226 0.00395422 0 0 0 0.000117588 -5.8888e-05 -4.12839e-06 0.000469734 0.000275735 7.0082e-05 -0.0441033 0.047603 0.00739788 0.004 300 0 
582 1 1 -0.0157606 0.035626 0.0039328 0 0 0 -7.77502e-05 9.34839e-05 -6.83902e-05 -0.000183595 -0.000747984 -0.000949361 0.00838329 -0.0418737 0.0553823 0.004 300 0 
255 1 1 -0.00267122 0.0389313 0.00391263 0 0 0 0.000530964 0.000355018 -0.000242036 -0.000356678 0.00026869 -0.000452967 -0.0539309 0.128098 0.037807 0.004 300 0 
887 1 1 0.00812285 0.037318 0.00392758 0 0 0 3.84589e-05 0.000471249 8.83145e-05 2.57808e-05 0.000211592 -0.000373503 -0.104392 -0.00517198 0.0116126 0.004 300 0 
719 1 1 0.0157866 0.035194 0.00398325 0 0 0 0.000118266 2.26845e-05 8.71612e-05 0.000125335 0.000228871 0.000132901 -0.0254188 0.0461743 -0.0496189 0.004 300 0 
21 1 1 0.0234269 0.0396317 0.00391442 0 0 0 -8.20551e-05 -6.30277e-05 -2.80491e-06 0.000208889 0.000129814 -5.95333e-05 0.0046638 -0.0217432 -0.0307645 0.004 300 0 
325 1 1 -0.0222354 0.0403009 0.00393808 0 0 0 -1.94367e-05 -0.000119506 7.9794e-05 -4.44034e-05 -7.77417e-05 -0.000221904 0.0216963 0.00933367 0.00475719 0.004 300 0 
595 1 1 -0.0149317 0.0435421 0.00398348 0 0 0 -7.22602e-05 -3.17984e-06 0.000114778 -1.9661e-05 -0.000216083 9.14739e-05 -0.00253225 -0.0439125 -0.0254164 0.004 300 0 
568 1 1 0.0162939 0.0430926 0.0039256 0 0 0 7.66117e-05 7.25468e-05 -8.67726e-05 0.000267605 0.00030464 -8.06707e-05 -0.0169777 0.00924982 -0.000521259 0.004 300 0 
387 1 1 -0.00719873 0.0454835 0.00390389 0 0 0 0.000201784 0.000169413 -3.6765e-05 -0.000167365 0.00011191 -0.000357731 -0.0290142 0.0629208 0.0523096 0.004 300 0 
852 1 1 0.000759132 0.046061 0.00397621 0 0 0 0.000170303 0.000317417 -0.000230027 -4.14431e-06 0.000310278 -0.000147752 0.0755936 -0.0211182 0.0252605 0.004 300 0 
157 1 1 0.00865544 0.0452492 0.00389736 0 0 0 -7.26544e-05 0.00023234 -0.000210102 0.000111664 0.000299509 -0.00056649 -0.00689934 -0.0383279 -0.0220254 0.004 300 0 
400 1 1 -0.0247514 -0.0387966 0.00974622 0 0 0 8.00654e-05 -8.69558e-06 -4.20753e-05 0.000330714 -9.71514e-05 0.000361859 -0.0666991 -0.0341814 0.0483693 0.004 300 0 
606 1 1 -0.000655722 -0.0387256 0.00813995 0 0 0 -9.95784e-05 8.41313e-05 9.55716e-05 0.000354257 -0.000241602 -0.000428781 0.0462726 -0.0532082 0.0151485 0.004 300 0 
724 1 1 -0.0339138 -0.0311605 0.00984897 0 0 0 2.85139e-05 -5.52365e-05 1.45724e-05 -7.00416e-05 7.83435e-05 -0.000142971 -0.0016641 -0.0360995 -0.0139962 0.004 300 0 
183 1 1 0.0251952 -0.0311657 0.00751609 0 0 0 -6.42892e-05 -0.000148498 -0.000166306 -0.0005085 -3.07256e-05 0.000445895 -0.024675 -0.0394215 0.0162067 0.004 300 0 
544 1 1 -0.0140206 -0.0253033 0.00875489 0 0 0 1.26292e-05 0.000135728 -0.000313819 0.000162076 -0.000436415 -7.58958e-05 -0.0588651 -0.0286885 0.010965 0.004 300 0 
29 1 1 -0.00450625 -0.026379 0.00900967 0 0 0 6.72727e-05 0.000152418 -0.000230476 -6.45993e-05 -0.000135367 -0.000207839 -0.0530011 0.000691734 -0.0263498 0.004 300 0 
248 1 1 0.00349776 -0.0278398 0.00763081 0 0 0 0.000122028 0.00015031 -0.0003755 0.000538561 -0.000414639 -0.000118813 -0.0216036 -0.042697 -0.0176341 0.004 300 0 
79 1 1 0.0358388 -0.0289477 0.00959774 0 0 0 -6.9335e-05 -0.000105405 -0.000110742 -0.000199338 8.91574e-05 9.75938e-05 0.00906634 -0.0336102 0.0237927 0.004 300 0 
291 1 1 -0.00458877 -0.0173975 0.00909648 0 0 0 1.38327e-05 0.000181754 5.29221e-05 0.000204126 0.000130784 -0.000758737 0.0411741 -0.00938801 0.020174 0.004 300 0 
891 1 1 0.00373442 -0.0155272 0.00632473 0 0 0 -3.57773e-05 0.000110837 -0.000316158 0.00021518 -0.000179993 -0.00080582 -0.0573869 -0.00369455 0.00281779 0.004 300 0 
870 1 1 0.0138352 -0.0156335 0.00831472 0 0 0 0.000145907 -0.000274802 -0.000611648 0.000201896 0.000362799 -0.000149613 0.0301547 0.00805205 0.0346264 0.004 300 0 
777 1 1 0.0349634 -0.018789 0.0077239 0 0 0 0.000103769 -0.000194812 -0.000260948 -0.000158074 -7.52956e-05 2.27995e-05 -0.0425948 0.00636551 0.0165468 0.004 300 0 
837 1 1 -0.0294531 -0.0146704 0.00802596 0 0 0 -3.23968e-05 -0.000141145 0.00026348 0.000181749 -0.000247847 -0.000204419 0.133735 -0.0220735 -0.0695906 0.004 300 0 
445 1 1 -0.018134 -0.0138513 0.00995099 0 0 0 -0.000183032 0.000160184 0.000241783 0.000301099 -0.000130651 -0.000280601 0.0186052 0.0116361 0.0735776 0.004 300 0 
783 1 1 0.00486497 -0.00860692 0.00993618 0 0 0 5.76735e-05 -4.04997e-06 -0.000438281 0.000364503 -0.000358316 0.000182772 0.0573809 -0.0436685 -0.0685333 0.004 300 0 
615 1 1 -0.0350988 -0.000758116 0.0095516 0 0 0 -2.37889e-05 6.35188e-05 0.00030457 -0.000250339 -0.00017925 -0.000370348 -0.0440504 0.0388313 -0.0673236 0.004 300 0 
476 1 1 -0.0459512 0.00262054 0.00988925 0 0 0 1.19912e-05 4.26651e-05 0.000258034 -0.000292974 -0.0001147 -0.000594543 0.017686 0.0721682 -0.081479 0.004 300 0 
16 1 1 -0.0210434 0.00169676 0.00831022 0 0 0 2.60601e-06 4.89245e-05 0.000264883 4.29859e-05 0.00018358 -0.000641528 0.00399016 -0.117604 0.0432763 0.004 300 0 
303 1 1 0.045949 0.00350347 0.00962575 0 0 0 -5.80125e-05 0.000361016 0.000101876 -0.000168241 -0.000516808 0.000258731 -0.0665525 -0.00472088 -0.0848047 0.004 300 0 
523 1 1 -0.0389788 0.0080308 0.00932912 0 0 0 0.000296091 0.000270285 0.00027784 -0.000225524 0.000184915 -0.000600601 -0.0215748 0.0461313 -0.0368708 0.004 300 0 
704 1 1 -0.010797 0.00519377 0.00743547 0 0 0 0.000163424 -9.23502e-05 0.000374099 0.000205874 -0.000157278 -0.000618081 -0.0253422 -0.00315031 -0.0707765 0.004 300 0 
454 1 1 0.00101315 0.00716143 0.00933794 0 0 0 0.000346093 -0.000222807 -0.000297832 0.000163443 -0.000577819 -0.000425835 -0.00538641 -0.0190513 0.0949207 0.004 300 0 
31 1 1 0.0102177 0.00547647 0.00832615 0 0 0 0.000342182 -6.20265e-05 -4.06725e-05 0.000555282 -0.000363231 -0.000383025 0.047966 -0.0707466 0.179783 0.004 300 0 
135 1 1 0.0188921 0.00749095 0.00960614 0 0 0 4.28525e-05 -0.000557005 4.44067e-05 -0.000979361 3.07464e-06 0.000169929 0.110277 -0.0312166 -0.0857913 0.004 300 0 
712 1 1 0.0281154 0.00743466 0.00998624 0 0 0 0.000394814 -0.000559623 0.000187947 -0.000606067 -0.00029937 0.0012649 0.0503996 0.0348777 0.0655369 0.004 300 0 
210 1 1 0.0394938 0.00814472 0.00989704 0 0 0 3.75617e-05 0.000323262 0.000133338 -0.000581323 4.01536e-05 0.000753478 -0.00860666 -0.0190547 0.0414036 0.004 300 0 
651 1 1 -0.0437984 0.0143398 0.00823553 0 0 0 8.29215e-05 1.27544e-05 5.54059e-05 -0.000449365 -0.000213107 2.89053e-05 -0.0129897 0.0102494 -0.000183613 0.004 300 0 
621 1 1 0.0437195 0.0147826 0.00900637 0 0 0 -5.67035e-05 0.000186357 0.000115901 -0.000158413 -2.42266e-05 0.000268593 -0.00869222 0.0241554 -0.0370879 0.004 300 0 
726 1 1 -0.0257655 0.0199987 0.006928 0 0 0 0.000367099 -0.000317917 6.0693e-05 0.000178088 0.000119381 3.93854e-05 -0.0412254 0.040215 -0.020612 0.004 300 0 
230 1 1 -0.00847254 0.024594 0.00974185 0 0 0 -2.89247e-05 0.000200236 -0.00076209 -0.000541284 4.99214e-06 -0.00088875 -0.120133 -0.0558481 0.0422683 0.004 300 0 
320 1 1 -0.00171189 0.020404 0.00979321 0 0 0 8.51428e-05 2.56946e-05 -0.000529648 -0.00086846 -0.00033269 -0.00150085 0.0559352 0.0448996 -0.0901929 0.004 300 0 
7 1 1 0.012921 0.0224313 0.00918257 0 0 0 0.000162114 1.22744e-05 -0.000575333 0.000373309 2.56447e-05 -0.00135885 -0.25118 -0.0140528 -0.0831981 0.004 300 0 
83 1 1 0.021419 0.0239659 0.00887942 0 0 0 -6.25168e-05 -0.000662507 -4.33263e-05 -0.000536202 -0.000275707 0.00042317 0.0847555 -0.0143244 0.0679205 0.004 300 0 
747 1 1 -0.0337284 0.0313859 0.00973621 0 0 0 0.000307465 -1.59804e-05 -0.000571523 -0.000438894 0.000103204 0.000202453 0.0326925 0.184262 0.0642451 0.004 300 0 
51 1 1 -0.0226159 0.0329679 0.00702868 0 0 0 6.80921e-05 -0.000292279 -0.000169499 1.63979e-05 8.36165e-06 2.96242e-07 0.0421809 0.0164483 -0.0506433 0.004 300 0 
116 1 1 -0.00939503 0.0391145 0.00812111 0 0 0 0.000183482 0.000574009 -0.000727456 -0.00086481 0.00128077 -0.00219558 0.0610233 -0.227644 -0.0127862 0.004 300 0 
205 1 1 -0.000559929 -0.0460768 0.0110201 0 0 0 -2.01448e-05 6.62329e-05 5.87212e-05 0.000369018 -0.00043482 -0.000722694 -0.00581851 0.108358 -0.0193546 0.004 300 0 
836 1 1 0.00737921 -0.0454683 0.0106578 0 0 0 -6.00355e-05 -6.46524e-05 -1.32056e-05 0.000136442 -0.000381626 -0.00021669 -0.0118007 0.0258166 0.0228079 0.004 300 0 
486 1 1 -0.0157172 -0.0402186 0.0103476 0 0 0 0.00153768 -0.00159388 -0.000741266 -0.000353195 0.000713002 -0.00020327 0.352036 0.36781 -0.0486197 0.004 300 0 
311 1 1 -0.00837122 -0.0440085 0.0106834 0 0 0 0.000583901 0.00276579 -0.000554181 3.12931e-05 -0.00029012 -0.000301097 -0.843566 0.217957 -0.0987001 0.004 300 0 
447 1 1 0.0180531 -0.0423876 0.0118326 0 0 0 -0.000182288 -0.000100387 -0.000189433 -9.66338e-05 -0.000281308 0.000209134 0.00815621 -0.0954133 0.0130354 0.004 300 0 
538 1 1 -0.0295734 -0.0353511 0.0149879 0 0 0 0.000118182 0.000128003 2.55506e-05 -0.000602316 0.000339705 -2.35357e-05 0.00603683 0.0524464 -0.0244255 0.004 300 0 
279 1 1 0.011152 -0.0385404 0.0114136 0 0 0 -0.000105803 -0.000133095 -0.00015386 -0.000130389 -0.000416184 0.000280246 0.0361226 0.0284997 -0.0174141 0.004 300 0 
110 1 1 0.0250448 -0.0386632 0.0117242 0 0 0 -0.00010336 -0.000133143 -4.88635e-05 -0.00029295 -0.000122765 2.45829e-05 -0.00564293 -0.000285648 -0.00372735 0.004 300 0 
188 1 1 -0.0179018 -0.0321042 0.0101641 0 0 0 -6.81834e-05 0.000166587 -0.000465527 6.24079e-05 -0.000460092 -0.000233469 -0.103652 0.0295151 0.000599748 0.004 300 0 
810 1 1 -0.0102632 -0.0344479 0.0102057 0 0 0 7.61308e-05 6.27174e-06 -2.81753e-05 0.000150844 -0.000547199 2.24663e-05 -0.0242767 -0.0221936 -0.0197024 0.004 300 0 
412 1 1 -0.00317113 -0.0328803 0.013355 0 0 0 5.1565e-05 1.2507e-05 1.1313e-05 -0.000193279 -0.000146366 0.000418067 0.0766688 0.0123114 0.0574698 0.004 300 0 
545 1 1 0.00451754 -0.0343058 0.0121938 0 0 0 9.26356e-05 0.000113411 -9.55444e-05 -6.82079e-05 -0.000277278 0.000172417 -0.0918732 0.0570951 -0.0594894 0.004 300 0 
100 1 1 0.011504 -0.0305916 0.0117063 0 0 0 0.000162509 -0.000166034 -0.000192562 -0.000109595 -0.000211289 0.000229647 0.0104363 0.0091214 -0.0265591 0.004 300 0 
556 1 1 0.0183647 -0.0344771 0.0109249 0 0 0 -3.02393e-05 -0.00015329 -0.000144514 -0.000367408 -0.000270944 0.000272016 -0.00730515 -0.0224097 -0.00167534 0.004 300 0 
32 1 1 0.0311335 -0.0339592 0.0134793 0 0 0 -0.000135267 -0.000114553 -0.00021598 -0.000415718 0.000131676 0.000131221 -0.0533467 -0.0218436 0.022277 0.004 300 0 
5 1 1 -0.0386737 -0.0250111 0.0114441 0 0 0 -7.22756e-05 -6.47989e-05 -0.000136148 -0.000151789 8.51441e-05 0.000155481 0.0542942 0.0157529 0.0122353 0.004 300 0 
415 1 1 -0.0253863 -0.0293634 0.0104109 0 0 0 -9.56264e-05 0.00029993 3.44865e-05 -0.000168505 -0.00067732 -2.49776e-05 -0.022867 0.00109482 -0.0222856 0.004 300 0 
446 1 1 -0.00968438 -0.0280484 0.0148397 0 0 0 2.39745e-05 -3.80438e-05 -0.000115389 0.000489703 -0.000418727 5.64937e-05 -0.0181291 0.0201872 0.0485806 0.004 300 0 
814 1 1 0.0190766 -0.0262836 0.0103722 0 0 0 0.000141989 -0.000179289 -0.000261278 -2.23162e-05 -0.000119846 0.000425155 -0.0162981 0.00701803 -0.0349305 0.004 300 0 
24 1 1 0.028967 -0.0255363 0.0115681 0 0 0 -0.000131388 -0.000146696 -0.000285719 -0.000368194 4.70782e-05 0.000378284 -0.028063 -0.0163126 -0.0396177 0.004 300 0 
266 1 1 -0.0293306 -0.0224306 0.0104493 0 0 0 -0.000379964 0.000225155 -0.000107242 6.89766e-05 -0.000247058 -0.000122293 0.0103809 -0.0626137 0.0432385 0.004 300 0 
487 1 1 -0.0208093 -0.0214222 0.0102406 0 0 0 8.41866e-05 0.000190227 -0.000211005 0.000247902 -0.000141302 -0.000271544 -0.0535464 0.112894 0.0126898 0.004 300 0 
655 1 1 0.00192169 -0.021153 0.011581 0 0 0 0.000106945 0.000111621 -0.000528518 0.000422973 -0.000378548 -0.000948007 0.069766 0.105215 -0.0246931 0.004 300 0 
243 1 1 0.0112844 -0.0227114 0.0108917 0 0 0 0.000245563 -0.000273686 -0.000380547 -7.58559e-05 1.91036e-05 -8.75463e-05 -0.032896 0.0741451 -0.0285966 0.004 300 0 
528 1 1 0.0400442 -0.0227787 0.0122837 0 0 0 5.50858e-05 -8.83981e-05 -0.000194905 -0.0001208 0.000161842 -0.000109546 -0.0183784 0.00923031 -0.0289592 0.004 300 0 
356 1 1 -0.0361818 -0.0175066 0.0110142 0 0 0 -0.000269742 8.67585e-06 -0.000116198 -2.86143e-05 -0.000125195 0.000126761 -0.0714138 -0.0815241 0.016452 0.004 300 0 
739 1 1 -0.0119209 -0.0183461 0.0119041 0 0 0 -0.000151088 3.74075e-05 -0.000182488 0.000149444 0.000161107 -0.000164243 0.162871 -0.0353275 -0.0331508 0.004 300 0 