ITEM: TIMESTEP
2400
ITEM: NUMBER OF ATOMS
891
ITEM: BOX BOUNDS mm mm mm
-0.05 0.05
-0.05 0.05
0 0.15
ITEM: ATOMS id type type x y z ix iy iz vx vy vz fx fy fz omegax omegay omegaz radius f_Temp[0] f_heatFlux[0] 
199 1 1 -0.00608775 -0.0455904 0.00470833 0 0 0 -0.0537008 0.00942115 -0.0621663 -0.00352645 0.00277938 -0.0195672 3.9903 -10.2577 -8.48811 0.004 300 0 
873 1 1 -0.0195896 -0.0415896 0.00391219 0 0 0 -0.0974503 -0.0554522 0.0796772 0.0515356 -0.168421 -0.0770845 6.89102 -9.40193 -15.0896 0.004 300 0 
850 1 1 0.000495289 -0.0410876 0.00400822 0 0 0 0.0791186 -0.0706515 0.0034562 0.0790155 -0.0502699 -0.179344 6.42335 -4.70819 -9.3811 0.004 300 0 
186 1 1 0.00756403 -0.0449893 0.00470114 0 0 0 -0.0221522 0.121871 0.066905 0 0 -0.0210391 43.221 1.56573 4.02006 0.004 300 0 
560 1 1 0.0154635 -0.0433149 0.00391107 0 0 0 -0.173902 -0.32981 0.114603 -0.00560104 0.00272086 0.105176 37.8666 6.82447 -11.1577 0.004 300 0 
682 1 1 -0.0321203 -0.0328005 0.00397016 0 0 0 0.201044 0.0489006 -0.00142853 -0.477635 -0.0962132 -0.0432924 21.7683 -13.4463 -15.0544 0.004 300 0 
251 1 1 -0.0244044 -0.0337884 0.00449771 0 0 0 0.0917212 0.00854077 0.0550851 0.517374 -0.174781 -0.00316918 2.27802 7.31206 -4.02491 0.004 300 0 
88 1 1 -0.00516451 -0.0351791 0.00403265 0 0 0 -0.0375492 -0.0362124 -0.0222906 -0.0248508 0.118473 -0.193512 20.4834 -8.18712 -5.14827 0.004 300 0 
776 1 1 0.00589458 -0.0352255 0.0038014 0 0 0 -0.0772171 0.0470115 0.0189415 0.126761 -0.149545 0.464186 -9.30467 4.60782 -31.4181 0.004 300 0 
883 1 1 0.0182681 -0.0324107 0.00377235 0 0 0 0.174096 -0.119533 0.0646732 -0.250982 0.27839 -0.358482 10.0164 4.25537 7.49058 0.004 300 0 
838 1 1 0.0303919 -0.034498 0.00391269 0 0 0 -0.105073 -0.0446557 0.0849446 0.147025 -0.0836268 0.0145244 7.5246 -12.0787 -2.35171 0.004 300 0 
571 1 1 -0.019787 -0.0273832 0.00380368 0 0 0 0.0653189 0.0418872 -0.171205 -0.013229 0.135966 0.822919 -1.47353 -3.30218 5.90576 0.004 300 0 
861 1 1 -0.0112814 -0.0257241 0.00394519 0 0 0 -0.19083 0.0104448 0.0623577 -0.0154146 0.0572975 -0.0199371 16.5655 -19.9106 1.69057 0.004 300 0 
770 1 1 -0.00137402 -0.0277764 0.00391782 0 0 0 0.141569 -0.121834 0.0671622 0.0802648 -0.0577285 0.0191 13.8029 1.61806 21.7551 0.004 300 0 
103 1 1 0.029894 -0.0261519 0.00427496 0 0 0 0.0541389 -0.136126 -0.016467 0.337505 -0.0256848 -0.0138127 -3.87866 12.7475 -4.46712 0.004 300 0 
451 1 1 0.0382184 -0.0256634 0.0044484 0 0 0 -0.0578801 -0.00693742 -0.0351834 -0.0907426 -0.195725 -0.0447777 -6.23068 10.9027 -9.01459 0.004 300 0 
824 1 1 -0.027738 -0.0254384 0.00402879 0 0 0 -0.127506 -0.300427 0.0501306 0 0 -0.0210391 13.9319 2.0137 18.1897 0.004 300 0 
259 1 1 0.00606212 -0.0231853 0.00390392 0 0 0 0.00997896 -0.0533048 -0.34375 -0.39166 0.176958 -0.67002 0.117526 25.0261 7.66077 0.004 300 0 
512 1 1 0.0142877 -0.0217303 0.00385231 0 0 0 0.0258442 0.226416 0.038703 0.00631946 -0.179706 0.169344 4.3426 18.88 -9.52874 0.004 300 0 
470 1 1 0.0220866 -0.025409 0.00374402 0 0 0 0.136646 -0.076148 -0.0502361 -0.404075 0.0265282 -0.134803 1.39907 12.1838 0.311144 0.004 300 0 
94 1 1 -0.0336413 -0.0199964 0.00391865 0 0 0 -0.234034 -0.189218 0.0428886 0.714925 1.19046 0.132552 6.8915 -24.7958 3.1237 0.004 300 0 
531 1 1 -0.0157841 -0.0172265 0.00387521 0 0 0 0.00738628 -0.112537 -0.0427237 -0.444057 0.0773709 -0.0124406 15.2492 4.6088 -4.03981 0.004 300 0 
734 1 1 0.030996 -0.0180685 0.00381185 0 0 0 0.0805033 -0.0554225 0.0505422 -0.0612815 0.0562086 0.00905789 0.439351 17.5887 -19.2544 0.004 300 0 
635 1 1 0.0416543 -0.0185669 0.00386909 0 0 0 -0.13443 -0.0832556 0.000929618 0.0748192 0.100572 0.173204 1.19203 27.8969 -7.55968 0.004 300 0 
406 1 1 -0.0426578 -0.0132307 0.0038476 0 0 0 -0.155996 -0.113291 -0.0554369 0.0260022 0.0501069 0.306331 18.2891 -23.3808 -24.2346 0.004 300 0 
224 1 1 -0.0250534 -0.0113485 0.00389063 0 0 0 0.0708706 -0.114128 -0.104688 -0.00774817 0.0144143 0.346941 12.7815 7.62123 -2.6239 0.004 300 0 
751 1 1 -0.00896255 -0.0122701 0.00387719 0 0 0 -0.0575957 0.0855994 -0.00845437 -0.0874693 -0.0388678 0.236636 18.0615 -3.69163 7.62061 0.004 300 0 
128 1 1 0.00497072 -0.0133745 0.00428236 0 0 0 0.00177611 -0.00704812 -0.0798836 0.0989574 -0.0693893 -0.0172117 -8.19939 1.93493 8.03056 0.004 300 0 
683 1 1 0.0156055 -0.0121112 0.00399778 0 0 0 0.0956978 -0.211012 -0.172206 -0.430742 -0.142347 -0.553543 8.6099 4.2369 3.13449 0.004 300 0 
10 1 1 0.0444135 -0.0111869 0.00480234 0 0 0 -0.196749 -0.0165048 0.0406462 -0.0540262 -0.378659 -0.0370326 5.08693 19.9767 -2.1517 0.004 300 0 
725 1 1 -0.0320783 -0.00752575 0.00383564 0 0 0 0.106546 -0.0769275 -0.00833195 0.126393 -0.0473084 0.54714 17.3607 -10.1102 3.33298 0.004 300 0 
622 1 1 -0.00171111 -0.00914258 0.00389587 0 0 0 -0.0335862 0.0263949 -0.114246 0.168261 0.425888 -0.221546 9.47371 -4.85037 -18.8388 0.004 300 0 
68 1 1 0.0215244 -0.0062654 0.00380213 0 0 0 0.240961 -0.109819 -0.0218208 0.0280192 -0.181623 0.486853 7.25446 34.276 7.79581 0.004 300 0 
791 1 1 0.0352295 -0.01123 0.00414139 0 0 0 0.338383 -0.123459 -0.148581 0.00213756 -0.00465852 -0.0310057 -21.898 8.56845 18.7612 0.004 300 0 
354 1 1 -0.0395795 -0.00505654 0.00405693 0 0 0 0.0471146 -0.0547721 -0.0182991 -0.139394 0.0580715 -0.0376263 15.5746 -11.5461 -2.1759 0.004 300 0 
761 1 1 -0.0287511 -0.000209211 0.00398135 0 0 0 -0.126519 0.109113 0.0285744 0.00976884 -0.0397056 -0.104328 -19.2239 -24.3206 2.87148 0.004 300 0 
384 1 1 -0.0107899 -0.00305713 0.00383667 0 0 0 -0.241008 0.141788 0.0496117 0.0165375 -0.00347863 0.484195 -7.125 -1.65658 -5.446 0.004 300 0 
815 1 1 0.00581405 -0.00147221 0.00414301 0 0 0 0.128399 0.192795 -0.0368698 0.0247017 -0.0515568 -0.0254609 2.03869 -0.781723 -9.43657 0.004 300 0 
306 1 1 0.0146328 -0.00140359 0.00377607 0 0 0 0.0116388 0.0296262 -0.0107812 0.122175 0.125168 0.44464 -0.477326 7.78926 -4.77917 0.004 300 0 
261 1 1 -0.0363616 0.00230635 0.0039717 0 0 0 -0.245893 0.0624489 -0.0336359 0.0331718 -0.0514789 -0.0176565 -0.535297 1.72409 9.91988 0.004 300 0 
420 1 1 -0.0227887 0.00509578 0.00398278 0 0 0 0.0108492 0.0319003 0.0697854 0.0272289 -0.0723328 -0.0479905 -5.18748 2.38569 10.7192 0.004 300 0 
178 1 1 0.0222909 0.00261976 0.00375301 0 0 0 0.130555 0.0474496 -0.0508118 0.223169 0.0464825 0.658665 3.36861 27.0812 13.2691 0.004 300 0 
862 1 1 0.0337812 0.00375761 0.0039182 0 0 0 0.168439 0.0794555 -0.0285261 0.0805573 0.256561 -0.341259 14.6012 4.68541 10.3716 0.004 300 0 
661 1 1 0.041935 0.00315161 0.00391626 0 0 0 -0.0213473 0.268692 -0.0428997 -0.167842 0.257861 0.159603 -10.299 38.9327 -19.0507 0.004 300 0 
677 1 1 -0.0449458 0.00873422 0.00397958 0 0 0 0.1624 0.0319711 0.044446 -0.000303145 -0.000103461 -0.0146328 5.30672 1.67588 6.7125 0.004 300 0 
654 1 1 -0.0132949 0.00796842 0.00405389 0 0 0 -0.0201564 0.0616693 -0.0808862 0.0204935 0.00652558 -0.0292118 -8.71414 10.125 -15.8614 0.004 300 0 
145 1 1 -0.00561489 0.00574311 0.00397248 0 0 0 0.0892592 0.0407187 -0.0101421 0.0569833 -0.0752028 -0.153023 -12.4151 -2.1905 11.488 0.004 300 0 
160 1 1 0.0106961 0.0065333 0.00376793 0 0 0 0.0727539 0.0872478 0.1229 -0.121473 0.32097 -0.131914 -11.1322 17.8471 -22.2755 0.004 300 0 
613 1 1 -0.0349185 0.0119101 0.00398729 0 0 0 -0.0911866 0.129593 0.0257946 -3.86598e-05 -0.000128602 -0.0183534 -12.6534 -28.7842 0.0145547 0.004 300 0 
265 1 1 -0.026843 0.0119274 0.00402027 0 0 0 -0.118875 -0.0704873 0.0252712 -0.0662902 0.0409904 -0.174467 -8.82658 -7.73948 4.10028 0.004 300 0 
227 1 1 -0.00833512 0.0173383 0.00402849 0 0 0 0.0208902 0.143452 -0.0427323 -0.149216 -0.498976 -0.360718 -2.52725 -13.1144 -3.9045 0.004 300 0 
392 1 1 -0.00149185 0.0129025 0.00421403 0 0 0 -0.0984638 0.171078 -0.0535072 -0.0115601 -0.166942 -0.00645048 1.84272 7.34358 -10.8158 0.004 300 0 
34 1 1 0.0105997 0.0143786 0.0039648 0 0 0 0.30088 0.102887 0.0756632 -0.0199632 0.352828 -0.000187661 -21.7775 6.16875 -3.69253 0.004 300 0 
743 1 1 0.0270313 0.012262 0.00392512 0 0 0 0.184351 0.248937 0.0852348 -0.00292443 -0.00166067 0.0995821 11.3535 11.8239 -17.4139 0.004 300 0 
514 1 1 0.0357135 0.0118782 0.00427661 0 0 0 0.275496 0.0782512 0.00892475 0 0 -0.0210391 -8.44208 10.7403 9.77146 0.004 300 0 
773 1 1 -0.0309089 0.0190348 0.00379896 0 0 0 -0.335672 -0.225053 -0.0102063 0.0109326 -0.0925186 0.525993 -7.51069 -29.2355 -12.7535 0.004 300 0 
530 1 1 -0.0161064 0.015439 0.0040654 0 0 0 0.0357661 0.175868 -0.0327142 0.00637625 -0.00741924 -0.0236988 3.52681 0.79346 4.00364 0.004 300 0 
348 1 1 -0.000798822 0.0207935 0.00389286 0 0 0 -0.0739824 0.0105507 -0.00732509 -0.0534829 0.255436 -0.0922035 -14.2338 -15.4746 9.82493 0.004 300 0 
206 1 1 0.0195217 0.0184197 0.00391772 0 0 0 0.0520168 0.131548 0.0271541 -0.165683 -0.223155 -0.0691338 17.2536 19.8141 3.71235 0.004 300 0 
104 1 1 0.0323278 0.0193342 0.00482569 0 0 0 0.0446957 0.0351703 -0.133436 0.19482 -0.11006 0.0132968 -22.4028 11.3722 10.552 0.004 300 0 
718 1 1 0.0429493 0.0163742 0.00400884 0 0 0 -0.00268758 0.0478869 0.14394 -0.00482043 0.00977434 -0.0209644 -24.159 20.7385 34.9228 0.004 300 0 
101 1 1 -0.038976 0.0244287 0.00393982 0 0 0 0.410716 0.120834 0.0814804 0.00987664 0.149952 -0.0885543 2.43026 -24.1223 16.2132 0.004 300 0 
331 1 1 -0.0221738 0.0241893 0.00382987 0 0 0 0.0482644 -0.0952942 0.0409213 -0.00763318 0.194021 0.452469 -2.40552 -11.5091 6.37521 0.004 300 0 
846 1 1 -0.0138525 0.0236106 0.00406543 0 0 0 -0.36182 0.175562 0.0343404 0 0 -0.0210391 -10.0077 -11.7254 -0.781147 0.004 300 0 
495 1 1 0.0255928 0.0233892 0.00395309 0 0 0 0.245096 0.0425009 0.0503772 -0.0301994 0.26919 -0.086631 -11.4539 -1.88239 -7.77426 0.004 300 0 
246 1 1 -0.0295784 0.0272415 0.00376623 0 0 0 -0.17198 0.0605854 0.0764165 -0.00196454 -0.225606 0.417549 -16.4948 -21.5583 -18.0888 0.004 300 0 
511 1 1 -0.00789242 0.0301042 0.00394359 0 0 0 -0.102509 0.393731 -0.059262 -0.221729 0.0310549 -0.260811 13.7013 -5.06224 -20.8784 0.004 300 0 
722 1 1 0.00537443 0.0278658 0.00395902 0 0 0 0.0369402 0.0235446 -0.118843 -0.0490315 0.021166 0.0507341 6.29152 -0.907265 -10.6916 0.004 300 0 
2 1 1 0.0237831 0.0310778 0.00479798 0 0 0 -0.111657 0.223061 -0.14939 0.0559145 -0.11323 -0.626881 -19.9254 3.40244 27.8655 0.004 300 0 
325 1 1 -0.0226384 0.0380187 0.00389652 0 0 0 -0.205915 0.17481 0.160663 -0.0215318 -0.115795 -0.160734 -4.00882 -9.11512 17.3351 0.004 300 0 
255 1 1 -0.00115707 0.0355211 0.00407096 0 0 0 -0.0741038 0.301201 -0.224313 0 0 -0.0210391 -5.48856 -4.17714 25.0943 0.004 300 0 
719 1 1 0.0145372 0.0322848 0.0039193 0 0 0 0.166134 0.139862 -0.112953 -0.205784 0.320375 0.138604 -10.9089 10.6793 -10.586 0.004 300 0 
257 1 1 -0.0300051 0.0351735 0.0037467 0 0 0 -0.0556823 0.0232468 -0.0159839 0.164625 -0.290471 0.336394 1.69128 -7.09671 10.025 0.004 300 0 
116 1 1 -0.00846845 0.0378067 0.00675787 0 0 0 0.0915385 -0.0217176 0.0566851 0.0391358 -0.118533 0.0225994 -0.735098 -11.2322 4.3837 0.004 300 0 
887 1 1 0.00727752 0.0361331 0.00381516 0 0 0 -0.316499 -0.0787106 -0.0341216 0.0703497 -0.118837 0.418319 -18.7847 -22.0526 -2.38046 0.004 300 0 
21 1 1 0.0250688 0.0387744 0.0038031 0 0 0 -0.261382 0.234056 -0.0716287 -0.155418 -0.216793 0.329705 14.2016 -14.7799 -5.6533 0.004 300 0 
852 1 1 -0.00233654 0.0444798 0.0050698 0 0 0 -0.104917 0.0646249 0.15344 -0.00814576 0.00595715 -0.0275993 -4.97161 1.09435 -6.34023 0.004 300 0 
568 1 1 0.0178953 0.0420399 0.00379085 0 0 0 -0.0919586 0.260359 0.0994315 -0.248598 0.0889089 0.694781 -34.0288 0.064249 -5.11079 0.004 300 0 
387 1 1 -0.0105756 0.0448611 0.00383039 0 0 0 0.235702 -0.107324 -0.204315 -0.0422999 0.00571519 0.667226 2.54678 23.6782 15.224 0.004 300 0 
157 1 1 0.00888079 0.0448839 0.00404432 0 0 0 0.129031 0.177064 0.114174 0 0 -0.0210391 -7.0634 3.98302 2.69739 0.004 300 0 
205 1 1 0.00165723 -0.0459647 0.0103935 0 0 0 0.00695459 0.0118047 0.240778 0 0 -0.0210391 -2.76487 -16.3518 -3.26443 0.004 300 0 
485 1 1 -0.012308 -0.0411857 0.00711866 0 0 0 -0.0454386 0.104498 -0.0746576 0.0378017 -0.00221737 -0.00597524 -19.333 8.67054 7.05323 0.004 300 0 
410 1 1 0.0110124 -0.0381593 0.009122 0 0 0 0.0547233 0.0450851 0.0684042 -0.179444 0.22581 -0.225979 -13.6787 -1.81721 -17.4073 0.004 300 0 
282 1 1 0.0238286 -0.0393787 0.00454097 0 0 0 -0.243247 0.115 -0.287296 0.0319797 -0.0510439 -0.0181764 0.146774 -7.9247 15.0571 0.004 300 0 
102 1 1 -0.0161625 -0.0344525 0.00408748 0 0 0 -0.0826764 -0.0164342 -0.308409 0.272922 0.301704 -1.64876 -0.517496 -6.55534 22.6974 0.004 300 0 
810 1 1 -0.0108167 -0.0316582 0.00918391 0 0 0 0.0240237 0.00740125 0.171652 0.369394 0.211254 -0.151749 -14.5218 11.839 -5.52991 0.004 300 0 
617 1 1 -0.0372125 -0.0267366 0.00398484 0 0 0 0.0342327 -0.289623 -0.0494053 -0.813489 -1.02525 0.0125393 16.106 -11.4396 10.6033 0.004 300 0 
724 1 1 -0.0312517 -0.0285325 0.0106062 0 0 0 -0.206501 -0.0342066 0.226281 -0.0180311 0.115607 -0.0215664 -25.8234 -12.2298 13.766 0.004 300 0 
434 1 1 0.0110278 -0.0292592 0.0053455 0 0 0 0.174722 -0.0627211 -0.312256 -0.0485666 -0.0146249 -0.0509265 -32.5549 -4.94457 20.2597 0.004 300 0 
777 1 1 0.0344335 -0.0214489 0.010019 0 0 0 0.123923 0.136649 0.0242531 -0.174049 0.050352 -0.153232 20.1315 16.0443 -2.1092 0.004 300 0 
40 1 1 -0.0231473 -0.0190595 0.00703242 0 0 0 -0.256618 0.116887 -0.26162 0 0 -0.0210391 3.50916 -3.95218 -1.03254 0.004 300 0 
442 1 1 -0.00310058 -0.0190941 0.00410266 0 0 0 -0.0479115 -0.177649 -0.1424 -0.101874 -0.0888917 -0.260163 -27.9534 16.9086 15.4824 0.004 300 0 
229 1 1 0.0229923 -0.0155281 0.0040073 0 0 0 0.23986 -0.108454 0.15333 0 0 -0.0210391 18.0495 18.1888 11.3364 0.004 300 0 
87 1 1 -0.0453696 -0.00767271 0.00886607 0 0 0 -0.0346728 -0.0334266 -0.0478052 -0.230379 0.0237486 -0.631937 -0.254833 2.08377 -21.219 0.004 300 0 
353 1 1 -0.0161354 -0.00914279 0.00527323 0 0 0 -0.171676 -0.154215 -0.258102 -0.0291693 -0.00927814 -0.0100322 -22.5753 -37.5724 -0.662581 0.004 300 0 
390 1 1 0.010865 -0.00697763 0.00785859 0 0 0 0.0160946 -0.106947 -0.311585 -0.32077 -0.0982319 -0.238185 1.31756 -11.6023 -5.23188 0.004 300 0 
293 1 1 -0.0215656 -0.0033504 0.00557709 0 0 0 -0.0811771 -0.0042291 -0.0595125 -0.0408076 0.0418652 -0.0214926 15.2778 33.657 -17.2693 0.004 300 0 
666 1 1 -0.00289648 -0.00147373 0.00600582 0 0 0 0.0121371 -0.101435 -0.218043 0.10793 0.114203 -0.114261 10.7301 13.8579 -3.67653 0.004 300 0 
690 1 1 0.0295648 -0.00323705 0.00390992 0 0 0 0.312627 -0.0702904 -0.17438 -0.0161116 0.00333838 0.308037 0.748537 -3.11217 16.5547 0.004 300 0 
262 1 1 0.0459353 -0.00351475 0.00481791 0 0 0 -0.0774542 -0.0841856 -0.169433 0.273488 0.186941 -0.114983 22.3169 -24.5071 -18.0932 0.004 300 0 
402 1 1 -0.045948 0.000449068 0.00395487 0 0 0 -0.190153 -0.0306731 0.0787279 -0.120376 0.0201584 -0.171305 15.2868 -0.400936 25.0351 0.004 300 0 
12 1 1 -0.0307109 0.00631395 0.00807343 0 0 0 -0.202021 0.0928986 0.0262837 -0.0588645 -0.0429769 0.0480043 -4.85009 26.8559 -8.1284 0.004 300 0 
704 1 1 -0.00981741 0.00225949 0.00974908 0 0 0 0.210662 -0.0567954 0.0261696 -0.040382 -0.0197834 0.00980256 -13.6952 2.07495 6.99206 0.004 300 0 
234 1 1 0.00249518 0.00574169 0.00437913 0 0 0 0.138949 0.276945 -0.196957 -0.0247017 0.0515568 -0.0166174 -0.21097 10.4987 13.6771 0.004 300 0 
523 1 1 -0.0391429 0.0073921 0.00938685 0 0 0 0.0536893 0.0241963 0.272146 0.0539396 0.0722631 -0.0242161 -10.4596 15.6463 18.0689 0.004 300 0 
484 1 1 0.0181659 0.00936673 0.00433553 0 0 0 0.168471 0.0473514 -0.315723 -0.0653137 0.104364 -0.00589459 -3.48301 8.78132 -2.0192 0.004 300 0 
809 1 1 -0.0413562 0.0169912 0.00524093 0 0 0 -0.301392 0.19045 -0.177756 -0.0271242 -0.101039 -0.0017073 -7.92424 2.61961 -6.85385 0.004 300 0 
624 1 1 0.0449279 0.00968439 0.00792473 0 0 0 0.475501 0.0449723 -0.148182 -0.0914426 0.425062 -0.236302 15.9134 -7.36202 17.8981 0.004 300 0 
726 1 1 -0.0227922 0.0174761 0.00792269 0 0 0 -0.0281786 -0.163171 0.106253 0.0755886 -0.0645337 0.109639 -10.2394 -13.5339 2.29913 0.004 300 0 
230 1 1 -0.00669314 0.0236411 0.00828889 0 0 0 -0.102568 0.0467811 0.040904 -0.183757 0.854749 0.256552 27.4797 14.5882 21.7994 0.004 300 0 
786 1 1 0.0109413 0.0222755 0.00504102 0 0 0 0.0882581 0.262049 -0.176152 0.0537083 -0.067651 -0.00941011 -17.3804 -13.0409 0.488425 0.004 300 0 
316 1 1 0.0180769 0.0257815 0.00649484 0 0 0 -0.0482813 0.0870641 0.0445546 0.164075 -0.219078 0.134407 7.50134 -32.1593 1.14821 0.004 300 0 
863 1 1 0.0394508 0.02355 0.00446125 0 0 0 -0.203556 0.0742124 -0.468514 0.0635451 -0.0911813 -0.0338886 -8.27981 -14.2701 -3.11468 0.004 300 0 
582 1 1 -0.0157922 0.0324597 0.00392695 0 0 0 0.0103174 0.221429 0.144448 0.0527009 0.28323 -0.846707 -27.8212 -6.25454 -0.155806 0.004 300 0 
366 1 1 0.029847 0.0256036 0.0102738 0 0 0 0.0850017 -0.10043 0.0969851 0.0859042 0.0557705 0.0632528 -4.75341 -20.8259 4.21477 0.004 300 0 
254 1 1 0.0349205 0.0299032 0.00585094 0 0 0 -0.17511 0.123837 -0.275825 -0.0742169 0.0669638 0.00679586 -5.23258 37.4615 -0.594096 0.004 300 0 
263 1 1 -0.0276531 0.0314692 0.010086 0 0 0 0.0363715 0.0863494 -0.0389202 0.24463 -0.220924 0.192234 -12.6653 30.328 7.16977 0.004 300 0 
151 1 1 0.00324266 0.0404256 0.00907855 0 0 0 0.033254 0.00900808 -0.028258 -0.0863729 0.197015 0.0697173 -11.0176 -2.23661 5.41359 0.004 300 0 
729 1 1 0.0123795 0.0373119 0.00970845 0 0 0 -0.13381 0.0868378 0.134734 0.020125 0.127421 -0.021699 6.74988 23.1766 -9.7456 0.004 300 0 
595 1 1 -0.0173352 0.0423963 0.00765169 0 0 0 0.121825 -0.0393696 0.177377 0.226977 0.21018 0.148421 6.7165 19.3076 9.96446 0.004 300 0 
231 1 1 -0.00749559 -0.0454479 0.0143973 0 0 0 -0.155023 0.0464868 0.15556 0.0172132 0.106439 -0.020181 8.63047 -5.68875 19.96 0.004 300 0 
836 1 1 0.00962584 -0.0450897 0.0124745 0 0 0 -0.0287056 0.00537636 0.140746 -0.104343 -0.0943649 0.136455 18.0008 18.5329 -6.87763 0.004 300 0 
447 1 1 0.0184614 -0.0423094 0.0112242 0 0 0 -0.0512727 -0.0611064 0.040752 -0.164318 0.00911942 0.0177704 -1.35692 0.238049 15.2688 0.004 300 0 
400 1 1 -0.0239354 -0.0394359 0.0101514 0 0 0 -0.111598 0.108322 -0.225484 -0.0998554 0.286944 0.178831 0.896164 25.3491 46.6196 0.004 300 0 
188 1 1 -0.0173217 -0.0353635 0.0115267 0 0 0 -0.0111744 0.193417 -0.365385 -0.505257 -0.544741 1.16282 -14.0216 39.0706 -18.6637 0.004 300 0 
311 1 1 -0.00384248 -0.0395956 0.0104468 0 0 0 0.0572604 -0.00979426 -0.0921859 0.249362 -0.203599 0.0515531 -15.7317 -11.4937 5.35211 0.004 300 0 
110 1 1 0.0247546 -0.0377128 0.0134247 0 0 0 -0.225442 -0.188733 0.00855217 0 0 -0.0210391 -7.08966 -14.2264 0.763123 0.004 300 0 
538 1 1 -0.0293411 -0.0352751 0.0143301 0 0 0 -0.551974 -0.277303 -0.0679584 -0.306745 0.116718 -0.547504 5.95434 8.49771 2.32746 0.004 300 0 
248 1 1 0.00377108 -0.0304644 0.00970622 0 0 0 0.295154 0.0149391 0.0355893 -0.0922624 0.183913 0.18961 -25.0724 -33.9847 4.0778 0.004 300 0 
556 1 1 0.0177082 -0.0345498 0.0111241 0 0 0 0.0336297 0.00853542 0.157421 0.0193982 0.00215064 0.451156 -35.5524 -13.5526 -27.7114 0.004 300 0 
79 1 1 0.0340814 -0.03086 0.00998141 0 0 0 0.318464 -0.202302 -0.0488543 0.00485505 0.00548 -0.0120126 -17.6842 -28.135 0.171915 0.004 300 0 
415 1 1 -0.0230415 -0.0275896 0.0111965 0 0 0 -0.115105 -0.148138 -0.149683 0.25398 0.250315 -0.894267 37.7607 -2.32531 13.5882 0.004 300 0 
814 1 1 0.0171574 -0.0266845 0.00970827 0 0 0 0.0470612 -0.141369 -0.0533838 -0.00144617 -0.23348 -0.228835 7.13496 -12.6408 0.907797 0.004 300 0 
183 1 1 0.0246267 -0.0312369 0.0083271 0 0 0 0.107216 -0.198535 -0.517049 0.242681 -0.208245 0.579563 10.2903 -8.66139 5.73091 0.004 300 0 
769 1 1 -0.0373661 -0.0220468 0.0106672 0 0 0 -0.447318 0.066214 -0.00322559 -0.0182303 -0.0240873 -0.0160941 2.8343 -13.9008 5.87007 0.004 300 0 
544 1 1 -0.016267 -0.0230436 0.0100029 0 0 0 -0.20431 -0.116981 0.0088095 0 0 -0.0210391 -27.9602 15.1204 -23.6131 0.004 300 0 
29 1 1 -0.00592409 -0.0250684 0.0097991 0 0 0 -0.0105531 -0.335335 0.0130168 -0.15202 0.47601 -0.204644 -24.2969 -6.9152 -9.9367 0.004 300 0 
243 1 1 0.00891577 -0.0239385 0.0109571 0 0 0 0.158818 0.0276044 -0.252996 0.281655 0.129074 0.862394 -16.3429 -0.318762 -6.55404 0.004 300 0 
309 1 1 0.0226895 -0.0209196 0.0100089 0 0 0 0.0622287 0.242402 -0.183318 -0.239014 0.344545 0.183825 -0.714815 12.1322 -10.9713 0.004 300 0 
673 1 1 -0.042188 -0.0152007 0.0114765 0 0 0 -0.0273833 0.317419 0.0788379 0.0091641 -0.0579341 0.165512 11.2822 19.1449 18.6241 0.004 300 0 
19 1 1 -0.00989032 -0.0183418 0.00883614 0 0 0 0.032382 -0.272011 -0.0847503 0.0540194 -0.0854689 0.369512 1.98993 -6.72287 3.52909 0.004 300 0 
891 1 1 0.00225472 -0.0189782 0.00988608 0 0 0 0.102733 0.146489 -0.0409249 0.322086 -0.212466 0.100123 -31.3561 -13.9836 12.4881 0.004 300 0 
870 1 1 0.0145419 -0.0178603 0.0106835 0 0 0 0.25144 0.108845 0.163156 -0.053637 0.3957 -0.0434354 2.72517 -10.3067 2.914 0.004 300 0 
374 1 1 0.0289944 -0.0149572 0.0107142 0 0 0 0.113773 0.21483 -0.00654094 -0.0965979 0.13806 0.332069 -12.7698 2.998 11.3885 0.004 300 0 
418 1 1 0.0423871 -0.0180149 0.0117588 0 0 0 0.211028 -0.109573 -0.325145 0.425709 -0.570678 -0.31327 0.823396 -3.78923 -15.0448 0.004 300 0 
837 1 1 -0.0315167 -0.0139152 0.00866949 0 0 0 -0.0667227 -0.151249 -0.0906708 0 0 -0.0210391 -11.4969 14.3538 -21.6077 0.004 300 0 
437 1 1 -0.0209875 -0.0118893 0.0111487 0 0 0 0.0530915 -0.1101 0.0564444 -0.275818 -0.0636675 -0.165728 10.9277 11.9408 3.91412 0.004 300 0 
291 1 1 -0.00360432 -0.0137279 0.00989995 0 0 0 -0.0772496 -0.078516 -0.240696 0.0454427 0.0975849 0.433389 1.67529 -7.95675 16.4798 0.004 300 0 
783 1 1 0.00753413 -0.0133451 0.0119597 0 0 0 0.197225 0.0457783 0.0187202 0.000906934 0.00105598 -0.0207052 -5.91463 3.02221 -0.840679 0.004 300 0 
840 1 1 0.0450032 -0.0104614 0.0130985 0 0 0 0.206227 0.234596 0.114071 -0.860084 0.163319 -0.046356 24.3136 -16.4986 -14.3014 0.004 300 0 
391 1 1 -0.00740521 -0.0064406 0.0102227 0 0 0 0.104386 0.179655 -0.125358 -0.0942973 -0.099742 0.052453 5.35 24.6549 -24.3565 0.004 300 0 
378 1 1 0.00306701 -0.00656615 0.00967528 0 0 0 0.0198911 0.0453201 -0.165789 0.18786 0.120561 -0.210811 -9.11461 -5.45685 -5.34628 0.004 300 0 
332 1 1 0.0202175 -0.0109775 0.010121 0 0 0 0.0676526 -0.256924 -0.0949323 0.401845 0.207317 0.479084 6.3328 -20.1643 2.28164 0.004 300 0 
589 1 1 0.0333218 -0.00792439 0.0111384 0 0 0 0.00785604 -0.0253933 -0.205769 0.382974 0.0934667 -0.605066 -5.44383 -4.88341 2.59159 0.004 300 0 
717 1 1 -0.0413982 -0.000280305 0.0103338 0 0 0 0.131953 -0.0859699 0.00781274 0.169963 -0.166437 -0.908014 8.80193 -19.1198 -0.259046 0.004 300 0 
615 1 1 -0.028662 -0.00325985 0.0113213 0 0 0 -0.241864 -0.0140943 -0.00175091 0.0389011 -0.0301816 -0.00342467 62.6015 19.1435 -1.33221 0.004 300 0 
411 1 1 0.0197009 -0.00155982 0.00980961 0 0 0 0.105164 -0.12015 0.0476576 0.322662 -0.110704 -0.185689 -3.43115 -13.4321 -10.4525 0.004 300 0 
706 1 1 0.0263337 -0.00485872 0.0125121 0 0 0 0.235763 -0.345512 -0.246717 -0.589398 0.31162 0.206404 -29.656 39.7759 27.6213 0.004 300 0 
16 1 1 -0.017554 0.0047521 0.00998225 0 0 0 0.116872 -0.0323122 0.00862496 0.292012 0.0473399 -0.439579 24.5403 -7.16515 1.50263 0.004 300 0 
31 1 1 0.0111527 0.00206726 0.00998098 0 0 0 0.0666452 0.0225072 0.0601135 -0.338942 -0.245219 0.110993 23.6043 0.483764 11.5953 0.004 300 0 
342 1 1 0.0325439 -1.56827e-06 0.0106381 0 0 0 0.163336 -0.0752493 -0.289947 0.0487141 -0.0631271 -0.0831108 -4.56728 7.00113 -19.3927 0.004 300 0 
303 1 1 0.0460213 0.00274159 0.01139 0 0 0 -0.130288 0.072774 -0.413043 0.360112 -0.0575559 -0.200313 26.8303 -20.0189 30.7794 0.004 300 0 
476 1 1 -0.0459163 0.00570658 0.0132673 0 0 0 0.134868 0.0180048 -0.473063 0.703127 0.164983 -0.222245 -1.62568 15.1747 7.71454 0.004 300 0 
492 1 1 -0.0076389 0.0113097 0.00923656 0 0 0 -0.0451227 0.124715 -0.370262 -0.236324 -0.00883835 -0.699946 9.29364 25.9818 1.0835 0.004 300 0 
454 1 1 0.000578903 0.00557187 0.0124633 0 0 0 -0.157943 0.109476 -0.0721762 0.0666314 0.222191 -0.0664035 9.34591 14.1488 7.82336 0.004 300 0 
493 1 1 0.00704498 0.00956932 0.0101431 0 0 0 0.0171586 0.135503 0.152591 0.137403 -0.0849263 -0.177782 18.5433 -14.9531 -4.15016 0.004 300 0 
135 1 1 0.0191795 0.00614547 0.0117161 0 0 0 -0.010563 -0.0394356 -0.46344 -0.0036682 0.0651758 -0.00150456 -10.4936 -12.7388 5.76121 0.004 300 0 
712 1 1 0.0276078 0.00596244 0.00880588 0 0 0 0.317949 0.000719648 -0.245637 -0.0449325 0.0461837 -0.0356609 -18.2728 -8.79947 13.2988 0.004 300 0 
273 1 1 -0.0174515 0.0126378 0.0115163 0 0 0 -0.255788 0.0846766 -0.0650808 0.377741 0.221099 -0.0949609 0.530127 -2.56381 14.6655 0.004 300 0 
191 1 1 0.0314337 0.0137355 0.0110272 0 0 0 0.202238 -0.130112 -0.000536584 0 0 -0.0210391 -11.3695 -33.0416 -3.4423 0.004 300 0 
632 1 1 -0.0333161 0.015247 0.0110863 0 0 0 -0.252722 0.0253096 0.0385935 -0.667181 -0.0437785 -0.660636 12.0054 -7.21843 -3.97986 0.004 300 0 
320 1 1 -0.00308624 0.0175929 0.011727 0 0 0 0.127418 0.234711 -0.269307 0.281028 -0.195656 0.0360406 13.2858 -15.8788 -2.21706 0.004 300 0 
792 1 1 0.00430651 0.0169439 0.00847527 0 0 0 -0.0812559 0.00320047 -0.219063 -0.113187 -0.138292 -0.0743922 8.29265 11.1861 8.0429 0.004 300 0 
7 1 1 0.0104478 0.0173694 0.0133204 0 0 0 -0.0165166 0.188422 -0.384225 0.25381 -0.000307188 0.137223 4.04187 -6.22981 -22.8905 0.004 300 0 
143 1 1 0.0176708 0.0145153 0.010513 0 0 0 0.124343 -0.110303 -0.0807517 -0.0209033 -0.0540363 0.105419 2.41814 -13.3109 -14.7864 0.004 300 0 
803 1 1 0.0247636 0.0185111 0.0102209 0 0 0 0.00983881 -0.140712 0.0333476 0.00253287 0.00996135 -0.0340512 57.4592 -7.93597 11.9051 0.004 300 0 
684 1 1 -0.0385977 0.0214915 0.0112796 0 0 0 -0.105822 -0.0732733 0.0557018 0.64266 0.918957 -0.408044 25.9735 1.71683 -14.3829 0.004 300 0 
344 1 1 -0.030622 0.0231773 0.0104586 0 0 0 -0.33733 0.0477532 0.121246 -0.0305188 0.000518172 0.0994323 -27.9953 11.2771 -9.33551 0.004 300 0 
637 1 1 -0.0144191 0.0233924 0.0120946 0 0 0 -0.246186 0.204456 0.0764936 -0.0630904 0.158432 -0.117393 13.7803 -4.50947 -3.04356 0.004 300 0 
105 1 1 0.00199624 0.0243297 0.0104512 0 0 0 -0.121339 0.0758885 0.0439416 0.0199241 -0.00507406 0.0011613 17.5358 27.8881 12.5146 0.004 300 0 
543 1 1 0.0372707 0.0229046 0.0121884 0 0 0 0.329384 -0.015606 -0.258753 0 0 -0.0210391 -0.915875 49.1425 -15.7049 0.004 300 0 
747 1 1 -0.0354591 0.0294565 0.00930543 0 0 0 -0.0476957 -0.132777 -0.0608895 0.183075 -0.137406 -0.0192494 9.7356 1.96974 14.3176 0.004 300 0 
51 1 1 -0.019703 0.0289651 0.00971369 0 0 0 -0.0681846 0.409553 -0.084349 -0.886046 -0.567404 0.205681 -24.7187 15.6166 -12.4691 0.004 300 0 
317 1 1 0.022887 0.0290653 0.0122565 0 0 0 0.353802 0.112132 -0.2577 0.0934785 -0.298606 -0.558892 -0.548992 -12.7989 14.0277 0.004 300 0 
644 1 1 -0.0124456 0.0315362 0.010949 0 0 0 -0.318152 -0.255015 -0.0372432 0.889137 0.240138 0.53991 -35.9301 -36.507 -36.8363 0.004 300 0 
750 1 1 -0.00406813 0.0311468 0.0107093 0 0 0 -0.255582 0.090912 0.0589594 0.103537 0.0445674 0.30915 17.2488 5.85373 -23.8171 0.004 300 0 
22 1 1 0.00371952 0.0325827 0.0101001 0 0 0 -0.299637 0.0547278 0.0813366 -0.0434598 -0.122824 -0.197251 -1.23178 15.263 -2.30994 0.004 300 0 
26 1 1 0.0203313 0.0364517 0.00972953 0 0 0 -0.238604 0.174221 0.0842001 -0.0222141 -0.0177723 0.0215954 -28.6737 14.7065 -2.00513 0.004 300 0 
433 1 1 0.0291634 0.0355619 0.00961493 0 0 0 0.239902 0.00584006 -0.352195 0.18665 -0.0637084 0.176479 3.06115 23.284 -0.483824 0.004 300 0 
507 1 1 -0.00843126 0.0453065 0.0126229 0 0 0 0.0403039 -0.0343843 -0.131157 -0.0601023 0.439854 -0.224161 14.9677 -8.79323 11.3004 0.004 300 0 
805 1 1 -0.000684622 0.0459708 0.0131916 0 0 0 0.134277 0.0546492 -0.0736138 0.44826 0.129298 0.0418106 -1.85344 7.53383 13.2501 0.004 300 0 
604 1 1 0.00406958 -0.0414571 0.0169569 0 0 0 0.0542384 0.126035 0.234579 0.0113034 -0.198068 -0.0334249 4.27294 23.0852 0.987501 0.004 300 0 
457 1 1 0.0155664 -0.0432034 0.0186139 0 0 0 0.0808912 -0.325757 0.137924 0.00224537 0.00103391 -0.0271218 -5.37914 9.79379 2.60704 0.004 300 0 
486 1 1 -0.00996618 -0.0373056 0.0147822 0 0 0 0.0837508 0.0300267 -0.362873 -0.316004 0.0843897 0.273612 1.87507 8.44878 -16.1582 0.004 300 0 
606 1 1 -0.00372781 -0.0318781 0.0128734 0 0 0 0.0726084 -0.111313 -0.418828 0.245478 -0.655098 0.228027 -18.5023 19.9374 -12.1612 0.004 300 0 
545 1 1 0.00349784 -0.0335572 0.0170739 0 0 0 -0.0728558 -0.0825179 -0.0359961 -0.00125228 -0.108865 -0.255675 6.62315 -8.68274 9.69217 0.004 300 0 
100 1 1 0.0113961 -0.0301512 0.01507 0 0 0 0.0333368 0.0643482 -0.39564 0.131556 -0.296947 0.196509 0.700745 -6.73474 6.40615 0.004 300 0 
446 1 1 -0.0119708 -0.0259339 0.0161425 0 0 0 -0.0883858 -0.102698 -0.145256 0 0 -0.0210391 12.6917 10.562 -4.50229 0.004 300 0 
5 1 1 -0.0330603 -0.024522 0.0176537 0 0 0 -0.318039 -0.0584316 0.351789 0 0 -0.0210391 6.32725 -11.4367 10.0399 0.004 300 0 
739 1 1 -0.00580116 -0.0194449 0.0156828 0 0 0 -0.0644207 -0.0856589 0.0700749 -0.178061 -0.0988145 -0.100354 -33.7296 4.94558 -10.3782 0.004 300 0 
655 1 1 9.73991e-05 -0.0249903 0.0150223 0 0 0 -0.0812103 0.0780101 -0.0424596 0.0384658 -0.00204349 0.012632 20.9866 -3.30713 10.8311 0.004 300 0 
749 1 1 0.0154301 -0.0231727 0.0164454 0 0 0 0.03122 0.200752 -0.263492 -0.025062 -0.0285353 0.662926 -8.53385 0.0964536 0.682551 0.004 300 0 
24 1 1 0.0281592 -0.0256795 0.0129032 0 0 0 0.171856 -0.0719906 -0.25678 0.284455 -0.23156 0.142551 22.4155 -1.72206 -14.9719 0.004 300 0 
356 1 1 -0.0344679 -0.0165183 0.0156689 0 0 0 -0.115931 -0.28741 -0.125711 0.0224269 -0.0950136 -0.0723861 -0.987987 -2.38779 -21.7512 0.004 300 0 
266 1 1 -0.0268292 -0.0186138 0.0144451 0 0 0 -0.127312 -0.354868 -0.140311 0 0 -0.0210391 4.10701 -15.1671 4.30218 0.004 300 0 
445 1 1 -0.0152258 -0.0160325 0.0147292 0 0 0 -0.116261 -0.0849301 -0.543537 0.165163 -0.0707253 0.0378122 7.77877 -22.5509 7.65929 0.004 300 0 
775 1 1 -0.00837395 -0.0119361 0.015888 0 0 0 -0.0528242 0.0749551 -0.177019 0.0504054 -0.047658 -0.0166552 11.9019 -21.8652 0.424307 0.004 300 0 
737 1 1 0.0228951 -0.0157441 0.0158703 0 0 0 0.155088 0.0239288 0.118347 0.10522 0.0806942 -0.0159689 6.80057 -6.55152 15.206 0.004 300 0 