ITEM: TIMESTEP
40800
ITEM: NUMBER OF ATOMS
891
ITEM: BOX BOUNDS mm mm mm
-0.05 0.05
-0.05 0.05
0 0.15
ITEM: ATOMS id type type x y z ix iy iz vx vy vz fx fy fz omegax omegay omegaz radius f_Temp[0] f_heatFlux[0] 
199 1 1 -0.00444377 -0.0458158 0.00397435 0 0 0 2.09428e-08 3.5553e-08 1.8647e-07 2.60039e-07 -4.81478e-07 -1.59823e-07 1.42596e-05 -1.02829e-05 -8.44925e-06 0.004 502.074 1.85459 
873 1 1 -0.0201484 -0.0414789 0.0039016 0 0 0 1.94466e-09 -9.26193e-08 1.00526e-07 1.81958e-07 -3.09404e-07 -6.82731e-08 1.7454e-05 -1.22794e-05 -1.30839e-05 0.004 418.602 3.13764 
485 1 1 -0.0126796 -0.0442534 0.00397264 0 0 0 1.26977e-08 -7.20136e-08 9.8241e-08 2.24728e-07 -3.22229e-07 -1.22809e-07 2.60287e-05 -1.21196e-05 -3.42918e-06 0.004 453.581 2.99104 
850 1 1 0.00335642 -0.0441759 0.00394115 0 0 0 3.57828e-08 1.63187e-07 2.92358e-07 1.29118e-07 -3.36627e-07 -2.02963e-07 -4.21474e-06 2.12721e-05 1.12854e-05 0.004 553.977 0.157579 
186 1 1 0.0114401 -0.0445988 0.00392827 0 0 0 -1.2894e-08 8.71992e-08 1.53324e-07 1.08804e-07 -1.18074e-07 -9.4908e-08 -4.05663e-07 1.0721e-05 -4.37999e-06 0.004 630.372 -2.11959 
560 1 1 0.018969 -0.0420006 0.00394676 0 0 0 -4.50742e-08 9.46368e-08 1.1924e-07 1.32393e-07 -1.03221e-07 -7.29363e-08 -6.73371e-06 6.91531e-06 -2.53317e-06 0.004 662.411 -2.73476 
102 1 1 -0.0147501 -0.0357331 0.00386311 0 0 0 6.47249e-08 -1.44493e-07 3.02196e-07 2.84098e-07 -5.41393e-07 -3.26251e-07 5.10791e-05 -1.81058e-06 4.75588e-05 0.004 440.438 2.59678 
88 1 1 -0.00730761 -0.0383837 0.00392727 0 0 0 7.87007e-08 2.46136e-08 2.11826e-07 1.80057e-07 -4.70663e-07 -1.39402e-07 9.51295e-06 2.39044e-05 1.13243e-05 0.004 484.085 1.92561 
776 1 1 0.00520385 -0.0354368 0.00395024 0 0 0 1.37316e-08 2.22562e-07 4.78673e-07 -1.00213e-07 -8.21356e-07 -4.67448e-07 -3.00532e-05 3.78058e-05 -1.61584e-05 0.004 593.013 -1.024 
410 1 1 0.0130236 -0.0368131 0.00392572 0 0 0 -5.36452e-08 1.47113e-07 3.11027e-07 1.68151e-07 -2.41721e-07 -1.52827e-07 8.17736e-06 1.82448e-06 1.74429e-06 0.004 638.222 -2.16731 
282 1 1 0.025876 -0.0381319 0.00388527 0 0 0 -9.15427e-08 1.33506e-07 1.1696e-07 1.59092e-07 -1.15299e-08 -9.01772e-08 2.5304e-07 -1.54075e-05 1.17387e-05 0.004 702.459 -3.19889 
682 1 1 -0.0302016 -0.0348779 0.00393465 0 0 0 -4.06521e-08 3.60205e-08 -7.89427e-09 6.59798e-08 -1.42106e-07 1.17662e-08 -1.65176e-05 4.86328e-06 2.43891e-05 0.004 366.888 3.03963 
251 1 1 -0.0224189 -0.0338476 0.00392332 0 0 0 6.76364e-08 -1.45887e-07 9.55575e-08 -8.98353e-09 -4.70544e-07 -7.9978e-08 -5.02583e-07 -3.16226e-05 -6.73617e-05 0.004 401.688 3.02006 
770 1 1 -0.00204754 -0.0321408 0.00393965 0 0 0 -4.10588e-08 1.97133e-07 3.63588e-07 1.65109e-07 -4.09742e-07 4.46078e-08 -8.39532e-06 -6.57339e-05 7.93261e-05 0.004 544.998 0.159985 
883 1 1 0.018166 -0.0307536 0.00390024 0 0 0 -1.59308e-07 3.11577e-07 4.19576e-07 2.36796e-07 -1.80945e-07 -3.01001e-07 -5.69619e-05 -4.29489e-05 2.50679e-05 0.004 674.812 -2.74264 
838 1 1 0.0320336 -0.033109 0.00396073 0 0 0 -1.38616e-07 1.35399e-07 2.15923e-07 1.75877e-07 1.18218e-08 -2.70511e-07 2.16868e-05 -1.86453e-06 -3.61764e-06 0.004 729.746 -3.21838 
617 1 1 -0.0372521 -0.0271215 0.00391646 0 0 0 -7.66194e-08 2.7104e-08 5.66554e-08 6.12862e-07 1.77408e-07 3.09328e-07 -4.27127e-06 -1.42616e-05 8.20216e-06 0.004 339.261 2.68931 
824 1 1 -0.0292998 -0.0270298 0.00392984 0 0 0 -1.1696e-07 -1.72368e-07 2.60719e-08 1.24132e-06 -2.64021e-08 6.86356e-08 4.50365e-05 -2.58836e-05 -4.26206e-05 0.004 355.217 2.89579 
571 1 1 -0.0202615 -0.0262215 0.00393285 0 0 0 5.32465e-07 -4.85588e-07 2.47651e-07 6.45203e-07 -8.44724e-07 2.85523e-07 9.29925e-05 2.53538e-05 -2.16553e-05 0.004 397.509 2.93968 
861 1 1 -0.00959294 -0.0297304 0.00389699 0 0 0 1.36218e-07 -1.65439e-08 4.78842e-07 5.45802e-08 -2.74016e-07 1.15122e-07 3.75692e-05 5.15533e-05 -4.04364e-05 0.004 474.948 1.77828 
434 1 1 0.0103455 -0.0293807 0.00393743 0 0 0 -5.20673e-08 2.25425e-07 4.48597e-07 4.33238e-08 -3.54046e-07 -3.63268e-08 -3.09026e-05 2.07646e-05 -1.6177e-05 0.004 630.772 -1.88001 
103 1 1 0.0311547 -0.0252347 0.00394363 0 0 0 -1.94474e-07 2.22634e-07 3.32374e-07 3.2989e-07 5.98324e-08 -3.24902e-07 -1.65798e-05 2.48465e-05 -7.44366e-06 0.004 739.156 -3.01202 
769 1 1 -0.041344 -0.0202818 0.0039823 0 0 0 -7.03542e-08 -4.57442e-08 -6.67755e-08 9.3572e-07 1.41535e-07 1.45472e-07 -1.50674e-05 -1.43324e-06 1.24881e-06 0.004 328.9 2.4084 
94 1 1 -0.0333714 -0.0202163 0.0039437 0 0 0 9.01709e-08 -1.1262e-07 1.60236e-08 1.63576e-06 1.73741e-07 2.13545e-07 -1.93258e-05 -1.08424e-05 -3.51409e-05 0.004 342.01 2.62244 
40 1 1 -0.025401 -0.0201464 0.00391762 0 0 0 3.37675e-07 -5.0975e-07 3.04533e-07 1.94296e-06 7.28225e-08 -9.467e-08 4.33771e-05 9.89098e-06 -6.51138e-05 0.004 366.067 2.80393 
19 1 1 -0.00865072 -0.0218804 0.00393966 0 0 0 7.51697e-08 3.11916e-08 6.30496e-07 -3.44023e-06 1.17633e-07 7.98412e-07 1.84507e-05 9.03584e-05 0.000122022 0.004 476.396 1.66577 
442 1 1 -0.000436966 -0.0218499 0.00393584 0 0 0 3.73905e-07 -2.86007e-07 7.25005e-07 -2.26078e-06 9.69138e-07 -6.58106e-07 7.35195e-05 6.54451e-05 0.000103374 0.004 552.265 -0.0255603 
259 1 1 0.00753191 -0.0220001 0.00392512 0 0 0 1.48123e-07 1.85392e-07 6.2166e-07 -9.10808e-07 -2.18826e-07 -2.96079e-07 3.30987e-05 5.01835e-05 -1.92197e-06 0.004 618.238 -1.54968 
512 1 1 0.0153883 -0.0232356 0.00397835 0 0 0 -9.1331e-08 3.13723e-07 3.99083e-07 4.43379e-08 -1.29483e-07 -3.41533e-08 -1.28143e-05 -4.37358e-05 5.70641e-05 0.004 671.791 -2.51504 
470 1 1 0.0232616 -0.0243589 0.00390816 0 0 0 -1.87596e-07 4.41074e-07 5.34836e-07 2.9555e-07 -1.02246e-07 -3.98506e-07 -7.41593e-05 -1.33576e-05 -2.52881e-05 0.004 710.352 -3.01974 
451 1 1 0.0390293 -0.0244875 0.00392048 0 0 0 -1.50478e-07 6.65863e-08 7.98757e-08 1.6125e-07 3.16467e-08 -6.87182e-08 -5.32136e-06 -6.21173e-06 -1.10813e-05 0.004 759.2 -2.6911 
531 1 1 -0.0164596 -0.0192004 0.00396126 0 0 0 -7.15804e-08 1.89809e-07 5.76013e-07 -3.11664e-06 2.51158e-06 1.06276e-06 -1.56278e-05 2.30965e-05 0.000431122 0.004 408.785 2.89613 
229 1 1 0.0202059 -0.0169136 0.00386876 0 0 0 -4.01678e-07 5.58039e-07 7.72762e-07 2.78655e-07 -3.1929e-07 -3.791e-07 -5.06287e-05 -2.7179e-05 2.10953e-05 0.004 701.674 -2.72952 
734 1 1 0.0280521 -0.017942 0.00394397 0 0 0 -3.07735e-07 3.93474e-07 5.35686e-07 3.15398e-07 1.39566e-07 -3.519e-07 -9.45741e-06 1.38321e-05 -9.63517e-06 0.004 739.417 -2.8411 
635 1 1 0.0425981 -0.0174495 0.00392192 0 0 0 -1.02795e-07 2.84352e-08 7.71165e-08 9.3921e-08 6.7534e-09 -7.03058e-08 -2.96682e-06 -2.86036e-05 -2.91834e-06 0.004 776.538 -2.11474 
87 1 1 -0.0448224 -0.0104639 0.0039142 0 0 0 7.5761e-08 -5.10673e-08 1.08797e-07 8.74798e-08 -1.83948e-07 5.78255e-08 -1.45447e-05 6.48558e-06 3.39753e-06 0.004 316.929 1.78963 
406 1 1 -0.0373951 -0.013391 0.00396016 0 0 0 4.01534e-08 -2.42891e-07 4.72638e-08 9.24249e-07 -1.56716e-07 -1.4464e-07 6.61189e-05 4.4332e-06 -5.39229e-06 0.004 326.691 2.20536 
224 1 1 -0.0230581 -0.0126019 0.00387961 0 0 0 3.82401e-07 -4.2684e-07 8.36368e-08 1.17953e-06 9.0933e-07 -1.05225e-06 4.42001e-05 0.000126843 0.000115381 0.004 378.486 2.51634 
751 1 1 -0.0102996 -0.0141545 0.00396945 0 0 0 -1.40179e-07 3.48661e-07 2.93525e-07 -3.1134e-06 2.17906e-06 6.39326e-07 -0.000107734 -6.43753e-05 -0.000168129 0.004 455.24 1.84135 
622 1 1 -0.00273388 -0.0117409 0.00388524 0 0 0 5.48015e-08 -1.04606e-07 6.95283e-07 -1.32954e-06 2.33142e-08 4.7226e-07 3.37889e-05 -3.38636e-05 -9.5334e-06 0.004 516.353 0.677585 
128 1 1 0.00951066 -0.010685 0.00388459 0 0 0 -4.25997e-07 4.4806e-07 9.35606e-07 -1.94582e-07 -9.70827e-07 -1.36764e-07 -8.02479e-05 -3.44167e-05 4.50927e-05 0.004 640.468 -1.86014 
68 1 1 0.0262808 -0.010211 0.00395439 0 0 0 -5.23913e-07 4.80637e-07 5.66971e-07 2.18024e-07 -1.27042e-08 -3.16607e-07 -8.16764e-05 -3.68188e-05 7.13839e-06 0.004 744.054 -2.71366 
791 1 1 0.0340945 -0.0118532 0.00392801 0 0 0 -3.97623e-07 2.58501e-07 3.08586e-07 3.96261e-07 3.39011e-07 -2.27906e-07 -1.50722e-05 -6.08833e-05 4.62545e-05 0.004 766.773 -2.43191 
354 1 1 -0.0380748 -0.00550396 0.00392042 0 0 0 1.03023e-07 -3.02664e-07 1.22779e-07 -5.45238e-07 -3.28539e-07 -1.13191e-07 7.20247e-06 -6.04323e-06 -4.20143e-05 0.004 323.812 1.99166 
725 1 1 -0.0304901 -0.00800531 0.0039252 0 0 0 2.89229e-07 -3.67212e-07 2.69118e-07 9.4678e-07 6.85992e-07 6.3327e-07 4.20409e-06 4.1701e-05 0.000121436 0.004 337.887 2.35493 
353 1 1 -0.0161288 -0.0087981 0.00391144 0 0 0 1.6833e-07 2.04536e-07 1.14625e-08 -5.12391e-07 2.21061e-06 -4.97341e-08 6.7554e-05 -4.40833e-06 7.43144e-05 0.004 416.121 3.1211 
391 1 1 -0.00857661 -0.00639748 0.00391358 0 0 0 1.65891e-07 5.3893e-08 4.17649e-07 2.46793e-07 5.78781e-07 1.21933e-06 9.34285e-05 -1.65126e-05 -1.14642e-05 0.004 471.182 1.4837 
683 1 1 0.0173533 -0.00945628 0.00390987 0 0 0 -5.02185e-07 6.42509e-07 7.12049e-07 7.00051e-08 -5.61063e-07 -1.66569e-07 -0.000143846 -4.36711e-05 -2.71086e-05 0.004 692.625 -2.60489 
690 1 1 0.0385537 -0.00520142 0.00390022 0 0 0 -2.68296e-07 5.12647e-08 3.7386e-07 1.36707e-07 2.96124e-07 -1.34488e-07 2.01731e-05 -2.72733e-05 -4.59579e-05 0.004 778.787 -1.91692 
10 1 1 0.0449635 -0.00990888 0.00397399 0 0 0 -1.13597e-07 1.2422e-08 8.42305e-08 -3.60551e-09 4.1225e-09 -2.78973e-09 -9.19261e-06 1.35004e-05 1.60873e-05 0.004 783.852 -1.73859 
402 1 1 -0.046017 -0.00264172 0.00392182 0 0 0 1.22725e-07 -6.61358e-08 3.81216e-08 -1.84255e-07 -1.30232e-07 -7.16053e-09 8.01452e-06 7.25836e-06 -3.0891e-05 0.004 316.914 1.7219 
761 1 1 -0.0294744 -0.000168335 0.00392563 0 0 0 1.20192e-08 -4.22885e-07 8.23808e-08 -9.63197e-08 8.05852e-07 -1.12464e-07 9.19021e-06 -4.14347e-05 8.50837e-06 0.004 348.891 2.40942 
293 1 1 -0.0229324 -0.00466873 0.0039595 0 0 0 3.43446e-07 -5.47948e-07 1.56997e-07 3.48541e-07 5.2812e-07 3.25529e-07 7.49649e-05 7.33616e-05 -6.9755e-05 0.004 377 2.49897 
384 1 1 -0.0147033 -0.000924487 0.00398149 0 0 0 4.61969e-05 0.00042772 -9.30295e-07 8.43477e-07 4.74234e-06 9.15911e-06 -0.107994 0.011727 0.107886 0.004 305.949 0 
378 1 1 0.00130609 -0.00490406 0.00392906 0 0 0 8.31037e-08 3.65481e-07 6.49003e-07 1.02831e-06 -9.60517e-07 -2.70033e-07 -0.000165868 -7.32326e-05 6.86089e-05 0.004 555.169 -0.121805 
390 1 1 0.0103707 -0.0027653 0.00396886 0 0 0 -1.0359e-06 4.62806e-07 7.17722e-07 2.01303e-06 -6.76228e-07 -5.64292e-07 -5.48692e-05 -0.000223762 0.000172727 0.004 653.275 -2.19539 
411 1 1 0.0223603 -0.00329286 0.00397626 0 0 0 -4.1026e-07 4.04823e-07 7.69493e-07 -1.73271e-07 3.47793e-08 -2.09343e-07 7.84497e-05 -9.71169e-05 -2.48793e-05 0.004 726.299 -2.8314 
342 1 1 0.0307348 -0.00361665 0.00397529 0 0 0 -4.8494e-07 3.27939e-07 2.81653e-07 1.1841e-07 4.17433e-08 3.11842e-08 -1.96388e-05 -6.70772e-05 1.56762e-05 0.004 767.159 -2.32134 
262 1 1 0.0460221 -0.00206505 0.00395833 0 0 0 -1.7156e-07 -2.3285e-08 1.11918e-07 7.59702e-09 1.49005e-08 5.72676e-09 3.46299e-05 -1.67103e-05 2.0365e-05 0.004 784.4 -1.69984 
261 1 1 -0.0398214 0.00224601 0.00393476 0 0 0 2.52321e-07 -2.17983e-07 9.09668e-08 -5.86507e-07 -2.25426e-07 -8.19383e-08 2.01896e-05 3.27063e-05 -4.97154e-06 0.004 323.98 1.93839 
666 1 1 -0.00454676 0.000451428 0.00395604 0 0 0 3.62589e-07 -5.0671e-08 6.25141e-07 7.21523e-07 -2.613e-07 7.37965e-08 3.48811e-05 0.000152985 -7.15127e-05 0.004 506.876 0.923663 
815 1 1 0.00434367 0.0024356 0.00392711 0 0 0 -1.99244e-07 3.41943e-07 3.16487e-07 2.42529e-06 -1.00101e-06 -3.47041e-07 1.5271e-05 -6.90773e-05 -0.000135224 0.004 596.076 -1.00374 
306 1 1 0.01637 0.00247667 0.0039581 0 0 0 -9.88031e-07 6.6049e-07 9.9022e-07 9.2405e-07 -1.18477e-06 -2.75565e-07 -0.000210585 -0.000159566 -0.000257736 0.004 696.928 -2.80102 
178 1 1 0.0241042 0.00444176 0.00386114 0 0 0 -5.99442e-07 2.88365e-07 9.13347e-07 -4.81857e-08 1.77317e-07 -3.14278e-07 -0.000121282 -8.25608e-05 8.0184e-05 0.004 730.311 -2.7466 
862 1 1 0.0320656 0.00423367 0.00393097 0 0 0 -5.07442e-07 3.37094e-07 6.59864e-07 -6.12962e-08 -7.59841e-08 -1.24165e-07 -7.9696e-06 -1.30142e-05 -7.51483e-05 0.004 761.089 -2.37595 
661 1 1 0.0398756 0.0029147 0.0039468 0 0 0 -3.24337e-07 -8.75803e-08 3.47941e-07 1.74268e-08 5.16692e-09 -8.46758e-09 6.11324e-05 4.08214e-06 1.23812e-05 0.004 777.891 -1.93594 
677 1 1 -0.0453782 0.0078854 0.00393641 0 0 0 1.34898e-07 -8.69947e-08 5.53532e-08 -7.71582e-08 -1.02602e-07 -3.59435e-08 -1.91267e-05 5.85741e-06 -5.83926e-06 0.004 317.425 1.76485 
12 1 1 -0.0333161 0.0067196 0.00393696 0 0 0 2.66386e-07 -3.87188e-07 7.83698e-08 -4.17121e-07 4.08989e-08 -3.97869e-07 5.40513e-05 1.53701e-05 -5.18537e-05 0.004 339.492 2.29041 
420 1 1 -0.0254 0.00664838 0.00392687 0 0 0 1.72138e-07 -7.14792e-07 1.46589e-07 -6.52329e-07 6.75246e-07 -4.30089e-08 0.000132018 1.61496e-05 -5.27391e-05 0.004 366.773 2.52091 
654 1 1 -0.0175134 0.00720947 0.00387212 0 0 0 1.32922e-07 -1.35397e-06 8.0537e-10 -3.38667e-08 7.2883e-07 5.54779e-07 0.000123411 5.77698e-05 -0.000199307 0.004 407.076 2.40511 
145 1 1 -0.00454408 0.00836538 0.00386311 0 0 0 6.67329e-08 -4.68136e-07 6.00599e-07 7.93985e-07 -8.21302e-07 -4.83117e-07 6.11182e-05 6.55192e-06 0.000128544 0.004 505.882 0.961609 
624 1 1 0.0451449 0.00890653 0.00390657 0 0 0 -3.20063e-07 -6.68491e-08 2.49341e-07 7.60647e-08 3.16628e-08 -6.45673e-08 1.68069e-06 -5.36886e-05 -4.50752e-06 0.004 781.887 -1.82801 
613 1 1 -0.0372991 0.0135339 0.00384344 0 0 0 2.71487e-07 -2.22843e-07 -2.08139e-08 -1.38793e-07 -8.5311e-08 2.34962e-07 6.68153e-07 2.06856e-05 8.44517e-06 0.004 329.304 2.1882 
265 1 1 -0.0293062 0.0135429 0.00396371 0 0 0 3.60667e-07 -5.27089e-07 1.91295e-07 -4.33311e-07 -1.72723e-07 1.18547e-07 -4.45633e-06 -1.57817e-05 -2.95773e-05 0.004 353.061 2.62781 
273 1 1 -0.0213694 0.0141274 0.00392939 0 0 0 4.84156e-07 -8.99908e-07 3.08866e-07 3.72454e-07 -3.68676e-08 1.9318e-07 0.00010603 6.24684e-05 1.659e-05 0.004 380.42 2.71197 
492 1 1 -0.01145 0.0123712 0.00398079 0 0 0 1.82471e-07 -1.29372e-06 2.87984e-07 4.51958e-07 -8.80886e-07 -4.61444e-07 0.000158852 1.7806e-05 0.000107771 0.004 454.594 2.04103 
234 1 1 0.00585285 0.010393 0.00392891 0 0 0 -5.11478e-07 1.71986e-07 6.77676e-07 8.80514e-07 -5.57126e-07 -3.08163e-07 -0.000123257 -2.85702e-05 -0.000103492 0.004 592.376 -0.843727 
160 1 1 0.0142843 0.0106356 0.00390958 0 0 0 -7.29974e-07 1.94005e-07 9.01467e-07 6.7319e-07 -2.05719e-07 -3.43801e-07 -0.000100015 -9.3274e-05 8.37586e-05 0.004 669.786 -2.24937 
484 1 1 0.0220893 0.0120738 0.0039012 0 0 0 -5.36733e-07 1.219e-07 6.71972e-07 2.35535e-07 -2.4327e-08 -3.43709e-07 1.36484e-05 1.15355e-06 -8.0904e-05 0.004 717.269 -2.70223 
743 1 1 0.0300184 0.0126216 0.00398127 0 0 0 -3.49584e-07 -3.39405e-07 1.97731e-07 1.87439e-08 4.63556e-08 -9.721e-08 5.79603e-05 2.25566e-05 -4.64915e-05 0.004 746.108 -2.62962 
514 1 1 0.0379536 0.0130186 0.00386906 0 0 0 -3.75288e-07 -1.70261e-07 4.02605e-07 7.32507e-08 -6.05664e-08 -1.21789e-07 5.45649e-05 -7.89872e-05 9.16989e-05 0.004 768.418 -2.26464 
530 1 1 -0.0159002 0.0198648 0.00392796 0 0 0 3.32307e-07 -7.1185e-07 7.14626e-08 1.53911e-07 -5.75335e-07 -1.65714e-07 9.09869e-05 6.36625e-05 1.60476e-05 0.004 409.189 2.62067 
227 1 1 -0.00736503 0.0192084 0.00396595 0 0 0 -1.41766e-07 -3.46239e-07 5.25095e-07 2.6439e-07 -1.2591e-06 -1.65995e-07 9.90913e-06 2.74375e-05 5.98784e-05 0.004 487.894 1.46383 
392 1 1 -0.000498631 0.0151513 0.00394446 0 0 0 -2.80707e-07 2.30794e-08 5.34856e-07 5.0395e-07 -7.16634e-07 -2.08337e-07 -3.14042e-07 3.53545e-05 6.92252e-05 0.004 538.918 0.31731 
493 1 1 0.00985839 0.0172531 0.00394647 0 0 0 -5.30409e-07 -3.43084e-08 6.08414e-07 2.71353e-07 -2.75622e-07 -3.31204e-07 7.17115e-05 -3.75919e-05 9.97652e-06 0.004 629.143 -1.54901 
34 1 1 0.0176357 0.0187852 0.003941 0 0 0 -4.35703e-07 -1.0856e-07 6.89359e-07 3.44118e-08 1.42567e-07 -3.00986e-07 3.14857e-05 -4.60893e-05 -2.38064e-05 0.004 681.923 -2.36608 
206 1 1 0.0255397 0.0192353 0.00396993 0 0 0 -3.03796e-07 -1.52188e-07 4.6791e-07 2.46848e-08 1.1757e-07 -1.56553e-07 2.83435e-05 7.53351e-05 2.19638e-05 0.004 725.136 -2.73555 
104 1 1 0.0334175 0.0199346 0.0038965 0 0 0 -4.05691e-07 -1.56856e-07 3.68152e-07 6.96603e-08 -1.01837e-08 -1.21306e-07 4.27832e-05 -8.8039e-05 -1.42459e-05 0.004 751.592 -2.65638 
809 1 1 -0.0412058 0.0204949 0.00395497 0 0 0 1.52833e-07 -1.54222e-07 -4.9013e-08 1.1081e-07 -9.09322e-08 1.67966e-07 7.48546e-07 4.01534e-05 1.69194e-06 0.004 324.123 2.17892 
773 1 1 -0.0331523 0.0204531 0.00393522 0 0 0 1.98849e-07 -2.72173e-07 -1.79205e-07 2.3319e-07 -3.17868e-07 2.72555e-07 -2.26521e-05 1.48612e-05 9.52687e-07 0.004 344.621 2.72815 
792 1 1 0.00347677 0.0219735 0.00392106 0 0 0 -4.02585e-07 8.87525e-08 4.19054e-07 1.89746e-07 -5.26174e-07 -2.53761e-07 -3.9243e-05 -7.49964e-05 -2.91134e-05 0.004 578.499 -0.572656 
718 1 1 0.0413199 0.0203659 0.00392989 0 0 0 -2.38638e-07 -8.3389e-08 2.457e-07 5.14067e-08 3.6266e-09 -6.91711e-08 1.17338e-06 6.73759e-06 2.45381e-08 0.004 767.086 -2.42179 
101 1 1 -0.0371146 0.0272995 0.00390402 0 0 0 9.46029e-08 -2.58807e-07 7.88667e-08 1.64485e-07 -2.41704e-07 1.34461e-07 8.52093e-05 -3.13678e-06 1.27554e-06 0.004 337.155 2.63116 
246 1 1 -0.0290567 0.0272807 0.00398271 0 0 0 8.57929e-08 -2.89125e-07 -1.66406e-08 1.9383e-07 -4.15991e-07 2.42109e-07 4.53267e-05 -3.81216e-05 1.359e-05 0.004 352.749 3.10568 
331 1 1 -0.0212281 0.0257799 0.00390018 0 0 0 2.48532e-07 -5.2491e-07 1.43523e-07 4.97361e-07 -8.72996e-07 2.81751e-07 7.35134e-05 2.90777e-05 -1.26636e-05 0.004 383.308 2.92866 
846 1 1 -0.0134708 0.0274168 0.0039748 0 0 0 -4.73788e-08 -3.20941e-07 2.55351e-07 3.46318e-07 -6.99617e-07 2.11042e-07 7.58972e-06 -4.12043e-05 8.81905e-05 0.004 428.185 2.36969 
348 1 1 -0.00329916 0.0260612 0.00393374 0 0 0 -2.14372e-07 1.30652e-08 3.2977e-07 -5.29835e-08 -6.67914e-07 -2.44556e-07 1.07926e-05 2.39078e-05 1.61265e-05 0.004 524.083 0.636373 
786 1 1 0.00840353 0.0281551 0.00389685 0 0 0 -2.90501e-07 7.62398e-08 3.6659e-07 -8.07458e-09 -3.40893e-07 -1.52341e-07 -2.21858e-05 -5.3122e-05 -1.94292e-05 0.004 614.481 -1.40993 
316 1 1 0.0162833 0.0272928 0.0039063 0 0 0 -2.40151e-07 -1.04413e-07 3.0051e-07 -2.34537e-08 5.56003e-08 -1.44918e-07 -1.55358e-06 3.30057e-06 -2.25059e-05 0.004 673.651 -2.52569 
495 1 1 0.0288861 0.0264618 0.00396716 0 0 0 -3.03644e-07 -1.01439e-07 2.72122e-07 6.33976e-08 2.51819e-08 -1.50437e-07 1.54689e-05 -1.56252e-05 2.23718e-06 0.004 736.874 -2.9372 
863 1 1 0.0367263 0.0277633 0.00392936 0 0 0 -1.98293e-07 -6.63275e-08 1.54318e-07 4.29928e-08 2.51287e-08 -6.32874e-08 3.27677e-06 -1.89889e-05 -1.37361e-05 0.004 757.477 -2.81531 
511 1 1 -0.00761835 0.0327132 0.00388553 0 0 0 -1.56009e-07 5.69278e-08 3.17665e-07 -6.47489e-08 -3.51855e-07 -5.15259e-08 -2.28711e-05 -2.42724e-05 -7.50329e-06 0.004 495.079 1.23781 
722 1 1 0.00164033 0.0322874 0.00396635 0 0 0 -2.04853e-07 1.01318e-07 2.54734e-07 -4.88521e-08 -2.52217e-07 -9.10784e-08 1.0318e-05 -2.04565e-05 2.4396e-06 0.004 563.911 -0.29813 
2 1 1 0.0229311 0.031696 0.00396244 0 0 0 -2.4386e-07 -6.28131e-08 2.53157e-07 8.15282e-08 -7.24682e-08 -1.50194e-07 -7.383e-06 -2.79466e-05 -1.22677e-05 0.004 703.929 -3.05662 
254 1 1 0.0305566 0.0343063 0.0039815 0 0 0 0.000481608 -0.000706171 -3.53623e-15 -1.89245e-18 -1.98872e-18 0 0.176952 0.120681 -0.0211551 0.004 798.547 0 
257 1 1 -0.0296322 0.0352231 0.00395613 0 0 0 8.29011e-08 -1.73359e-07 5.32231e-08 1.07455e-07 -3.23241e-07 -9.13718e-09 8.1681e-06 9.36242e-06 -3.45335e-05 0.004 357.013 3.33032 
582 1 1 -0.0157655 0.0356206 0.00393205 0 0 0 1.85016e-07 1.26488e-07 7.76531e-08 5.08734e-07 4.18427e-07 -5.06228e-08 -4.62528e-05 3.00002e-05 0.000103693 0.004 403.991 3.35304 
255 1 1 -0.00267125 0.038932 0.00391148 0 0 0 -1.27414e-07 9.4793e-08 1.94923e-07 1.61885e-07 -1.01652e-07 -8.90924e-08 -3.03863e-05 -2.41228e-05 -5.93327e-06 0.004 526.059 0.597267 
887 1 1 0.00812084 0.0373183 0.00392889 0 0 0 -1.30627e-07 -5.18886e-09 2.64799e-07 1.94155e-07 -8.06142e-08 -1.2824e-07 -1.75414e-05 -3.55823e-06 -6.16065e-06 0.004 627.954 -1.9944 
719 1 1 0.0157853 0.0351951 0.00398363 0 0 0 -1.11277e-07 -2.90207e-08 1.59081e-07 1.30341e-07 2.14274e-08 -1.28432e-07 -1.72436e-05 9.7616e-06 -1.17809e-05 0.004 672.859 -2.7857 
21 1 1 0.0234243 0.0396338 0.00391497 0 0 0 -6.87226e-08 -3.41305e-08 8.84447e-08 5.62211e-08 -1.33188e-08 -2.68947e-08 -6.96619e-06 -1.11925e-05 -1.92186e-05 0.004 705.274 -3.26036 
325 1 1 -0.0222388 0.0402984 0.00393951 0 0 0 1.75048e-08 -1.63296e-07 7.80309e-08 1.37679e-07 -1.94087e-07 -1.04687e-08 2.50313e-05 6.52456e-06 2.33968e-06 0.004 392.777 3.48009 
595 1 1 -0.014931 0.0435393 0.00398254 0 0 0 -8.61385e-08 2.98694e-08 -2.40801e-08 -1.15498e-07 9.70502e-08 -1.28213e-07 4.76505e-06 -2.12167e-06 -9.5519e-06 0.004 426.305 3.10263 
568 1 1 0.0162912 0.0430934 0.00392629 0 0 0 -3.87389e-08 -1.98477e-08 7.38504e-08 7.33834e-08 9.36021e-09 -6.18233e-08 1.08318e-06 4.18788e-06 4.07375e-06 0.004 669.684 -2.77526 
387 1 1 -0.00719691 0.045487 0.00389933 0 0 0 -9.17143e-08 3.66264e-08 4.27785e-08 8.1289e-09 -9.25864e-08 -2.42294e-08 -3.56291e-06 -2.34725e-05 -1.01516e-05 0.004 498.742 1.33522 
852 1 1 0.000758888 0.0460615 0.00397617 0 0 0 -4.53014e-08 3.40691e-08 6.44083e-08 -2.39338e-08 -1.69588e-08 -4.24815e-08 -1.54494e-05 -1.84105e-06 -8.92898e-06 0.004 554.082 -0.101478 
157 1 1 0.00865317 0.0452492 0.00389824 0 0 0 -4.27257e-08 -2.44152e-08 1.10695e-07 5.03048e-08 -2.93223e-08 -5.7205e-08 -7.15547e-06 -2.07244e-06 -1.06264e-05 0.004 619.825 -1.75418 
400 1 1 -0.024752 -0.0387964 0.00974418 0 0 0 -1.48386e-07 3.52163e-08 7.07396e-08 1.92638e-07 -7.28e-07 -2.73808e-09 -3.32585e-05 -2.34649e-05 7.32965e-06 0.004 387.883 3.36659 
606 1 1 -0.000653938 -0.0387266 0.00813892 0 0 0 -1.50746e-07 2.82439e-07 5.88679e-07 2.38234e-07 -9.61674e-07 -3.79645e-07 -1.59339e-05 -0.000127422 2.90417e-05 0.004 549.617 0.147082 
724 1 1 -0.0339144 -0.0311598 0.00984801 0 0 0 -2.17939e-07 -2.18037e-08 1.49158e-07 3.32284e-07 -4.16527e-07 2.28072e-08 4.4746e-05 -5.45578e-05 1.56995e-05 0.004 348.724 2.8769 
183 1 1 0.0251947 -0.0311656 0.00751475 0 0 0 -2.68239e-07 3.3043e-07 5.21907e-07 4.37386e-07 2.53608e-08 -5.22759e-07 4.67086e-05 -4.75078e-06 5.03502e-06 0.004 712.594 -3.12448 
544 1 1 -0.0140218 -0.0253028 0.00874964 0 0 0 2.51461e-07 -7.36529e-07 1.07716e-06 -2.08942e-07 -1.49778e-06 -1.29542e-07 0.00011848 -0.000107428 4.39422e-05 0.004 434.463 2.40028 
29 1 1 -0.00450628 -0.0263793 0.00900729 0 0 0 1.93748e-07 -5.88179e-08 1.04645e-06 -1.28276e-06 2.59471e-07 -2.48917e-07 -0.000112576 -9.89165e-05 -0.000154235 0.004 505.307 1.09032 
248 1 1 0.00349901 -0.0278426 0.00763308 0 0 0 -1.97092e-07 3.52455e-07 1.21309e-06 4.28686e-07 -1.73501e-06 -3.07986e-07 0.000144893 2.42587e-05 -4.09043e-05 0.004 581.778 -0.771577 
79 1 1 0.035837 -0.0289489 0.00959647 0 0 0 -1.65017e-07 1.74383e-07 2.83303e-07 2.28507e-07 -1.18214e-07 -3.34493e-07 -3.26433e-05 6.95797e-05 -1.56748e-05 0.004 747.528 -2.95051 
291 1 1 -0.00458871 -0.0173975 0.00909523 0 0 0 -4.11947e-07 -2.66771e-08 1.13789e-06 -1.05049e-06 -6.3422e-07 5.78907e-07 -8.44973e-06 -0.000194662 6.29511e-06 0.004 513.285 0.772883 
891 1 1 0.00373489 -0.015528 0.00632509 0 0 0 -2.12486e-07 1.36376e-07 1.14417e-06 -9.36939e-07 -5.43597e-07 -3.96093e-07 -5.1424e-05 -7.24763e-05 8.35145e-05 0.004 581.464 -0.706709 
870 1 1 0.0138323 -0.0156364 0.00831017 0 0 0 -5.68004e-07 8.28095e-07 1.52879e-06 4.02208e-07 -7.98762e-07 -5.42547e-07 -2.41674e-05 3.63412e-05 -2.52223e-06 0.004 661.008 -2.25495 
777 1 1 0.034969 -0.018778 0.00771 0 0 0 -2.04817e-07 3.1585e-07 3.00951e-07 3.36504e-07 3.15391e-07 -1.56936e-07 -1.33337e-06 6.60439e-05 -2.34939e-05 0.004 760.746 -2.6448 
837 1 1 -0.029449 -0.0146727 0.00803326 0 0 0 3.77912e-07 -7.64403e-07 3.32839e-07 2.49381e-06 1.34704e-07 1.79325e-07 9.1798e-05 -8.43638e-05 -7.17938e-05 0.004 349.518 2.52474 
445 1 1 -0.0181359 -0.0138493 0.00995276 0 0 0 -2.30356e-07 -9.78068e-07 6.81791e-07 3.04677e-06 2.67134e-06 -3.02568e-06 5.83628e-05 -0.000287249 -0.000198774 0.004 404.22 2.47864 
783 1 1 0.00485898 -0.00860656 0.00993769 0 0 0 -5.61458e-07 2.98599e-07 1.83749e-06 6.40777e-07 -2.15803e-06 3.91526e-08 0.000144791 -6.56255e-05 -7.15721e-05 0.004 593.328 -0.932507 
615 1 1 -0.0350999 -0.000758711 0.00955182 0 0 0 2.47944e-07 -6.63275e-07 1.61397e-07 -1.36381e-06 -4.22362e-07 -1.58768e-07 5.86155e-05 1.43439e-05 -9.11513e-05 0.004 330.826 2.07852 
476 1 1 -0.0459522 0.00262139 0.00988978 0 0 0 1.75678e-07 -8.92467e-08 6.74455e-08 -1.54272e-08 -2.71205e-07 1.72005e-07 3.43254e-05 -9.82969e-06 2.26275e-06 0.004 314.867 1.63122 
16 1 1 -0.0210456 0.00169438 0.00830926 0 0 0 -1.02163e-07 -1.19017e-06 5.43251e-07 -1.56099e-06 1.64299e-06 1.20468e-06 -1.7927e-05 -0.000229752 0.00014194 0.004 385.119 2.4918 
303 1 1 0.0459492 0.00350463 0.00962656 0 0 0 -3.00667e-07 -8.36008e-08 4.72561e-07 1.37371e-07 1.19632e-07 -7.68995e-08 -8.23612e-06 0.00010958 2.48173e-05 0.004 783.106 -1.75143 
523 1 1 -0.0389797 0.00803081 0.00932861 0 0 0 5.59508e-07 -3.92152e-07 2.61602e-08 -4.55223e-07 -5.89989e-07 2.92747e-07 -1.26286e-05 4.62202e-05 6.19463e-05 0.004 324.693 1.97569 
704 1 1 -0.010798 0.00519222 0.0074386 0 0 0 3.90598e-09 -1.74422e-06 9.38962e-07 1.36318e-07 7.29985e-07 -2.40253e-07 -0.000281024 -0.000247512 0.000163093 0.004 452.957 1.85711 
454 1 1 0.0010118 0.00715932 0.00933956 0 0 0 -6.45517e-07 -6.65182e-07 1.09867e-06 1.4203e-06 -1.58941e-06 -2.59456e-07 0.000324724 -0.000124027 0.000337414 0.004 554.034 -0.0746739 
31 1 1 0.0102164 0.00547591 0.00832591 0 0 0 -1.30439e-06 5.2227e-07 2.01491e-06 1.37911e-06 -1.01495e-06 -1.36209e-06 -0.000142995 -0.000260275 3.8254e-05 0.004 633.409 -1.67851 
135 1 1 0.0188886 0.0074917 0.00960784 0 0 0 -1.41474e-06 6.04874e-07 1.50354e-06 3.40212e-07 -3.12193e-07 -4.34725e-07 6.141e-05 -0.000234099 -8.74837e-06 0.004 708.671 -2.83305 
712 1 1 0.0281139 0.00743266 0.00998855 0 0 0 -1.28198e-06 4.17924e-08 1.69e-06 3.18701e-07 1.08451e-07 -4.84894e-07 0.000256855 -0.000110291 -1.40901e-05 0.004 743.872 -2.64137 
210 1 1 0.0394934 0.00814606 0.0098988 0 0 0 -7.89755e-07 -9.28957e-08 7.69225e-07 2.49379e-07 1.05682e-07 -1.79747e-07 -5.41239e-05 -0.000113286 -2.0195e-05 0.004 775.861 -2.02428 
651 1 1 -0.0437987 0.0143398 0.00823566 0 0 0 2.88641e-07 -1.81369e-07 -1.73209e-08 9.04198e-08 -1.88812e-07 1.84726e-07 2.15151e-05 2.44262e-05 -2.14778e-05 0.004 321.082 1.95621 
621 1 1 0.0437182 0.0147846 0.00900765 0 0 0 -4.30064e-07 -5.92587e-08 4.05181e-07 9.58192e-08 4.19494e-09 -1.28106e-07 -3.20893e-05 5.21461e-05 -1.7864e-05 0.004 773.847 -2.12973 
726 1 1 -0.0257657 0.0199972 0.00692824 0 0 0 3.09052e-07 -6.15778e-07 -6.85768e-09 1.14709e-07 -1.14101e-06 3.52735e-07 -0.00014546 -0.000174519 -3.84064e-05 0.004 363.905 2.85154 
230 1 1 -0.00847466 0.024595 0.00973776 0 0 0 -3.85258e-07 3.07995e-07 5.87712e-07 4.01865e-07 -2.3927e-06 -5.98794e-07 -0.000119507 -6.56104e-05 -5.83395e-05 0.004 487.028 1.39039 
320 1 1 -0.00171266 0.020405 0.00979386 0 0 0 -6.85428e-07 2.07095e-07 8.80532e-07 5.30845e-07 -1.25411e-06 -6.20131e-07 -2.21413e-05 4.33192e-05 9.64909e-05 0.004 536.642 0.373299 
7 1 1 0.0129211 0.0224303 0.00918518 0 0 0 -7.20152e-07 6.7255e-08 9.1476e-07 -8.72088e-08 -2.73262e-07 -4.16753e-07 -9.57678e-05 -3.63725e-05 -2.95802e-05 0.004 654.491 -2.10995 
83 1 1 0.0214164 0.0239651 0.00888426 0 0 0 -6.84227e-07 -1.26329e-07 8.48139e-07 8.78055e-08 7.53223e-08 -3.34198e-07 -0.000109661 -0.000150345 -7.36017e-05 0.004 712.331 -2.82929 
747 1 1 -0.0337321 0.0313835 0.00974072 0 0 0 6.39521e-08 -3.33346e-07 2.36519e-07 2.99827e-07 -4.22712e-07 1.50437e-07 -0.000114955 4.43274e-06 -2.36529e-05 0.004 351.541 2.92433 
51 1 1 -0.0226192 0.0329654 0.00703451 0 0 0 3.06471e-07 -3.76784e-07 2.02472e-07 5.77881e-07 -6.90638e-07 3.0823e-07 -3.92e-05 8.39043e-06 5.16265e-05 0.004 376.969 3.33983 
116 1 1 -0.00940735 0.0391203 0.00809817 0 0 0 -2.79472e-08 2.11808e-07 2.95787e-07 2.22249e-07 -2.72478e-07 -9.91975e-10 -6.22515e-05 7.39178e-05 2.4729e-05 0.004 488.856 1.48734 
205 1 1 -0.000560455 -0.0460776 0.0110171 0 0 0 -2.09737e-07 1.78301e-07 3.30596e-07 3.93277e-07 -5.47777e-07 -9.08551e-08 5.91317e-05 -4.47087e-05 2.10055e-05 0.004 550.896 0.143341 
836 1 1 0.00737985 -0.0454688 0.0106611 0 0 0 -3.72645e-08 1.63296e-07 3.24796e-07 4.0994e-07 -3.68846e-07 -1.2241e-07 3.00818e-05 -1.00773e-05 -1.05859e-05 0.004 594.043 -1.09991 
486 1 1 -0.0156916 -0.0402432 0.0103352 0 0 0 -3.49317e-07 1.1013e-07 4.54376e-07 4.47534e-07 -5.58845e-07 -4.96557e-08 -0.0001267 -0.000111585 -7.39218e-05 0.004 430.781 2.95486 
311 1 1 -0.00836811 -0.0439882 0.0106791 0 0 0 -4.02468e-07 -4.76379e-08 3.98999e-07 9.26933e-07 -1.12726e-06 -2.71937e-07 1.08979e-05 -8.5125e-05 6.12527e-05 0.004 481.242 2.48471 
447 1 1 0.0180551 -0.0423881 0.0118323 0 0 0 -7.90475e-08 2.33394e-07 3.28784e-07 4.1409e-07 -3.27295e-07 -2.25372e-07 4.02937e-05 3.56331e-05 -2.37825e-05 0.004 656.449 -2.59736 
538 1 1 -0.0295743 -0.0353509 0.0149849 0 0 0 -3.17088e-07 -1.37392e-07 1.48251e-07 1.14514e-07 -1.14411e-06 -5.89055e-08 5.39883e-05 -1.83033e-05 5.29184e-05 0.004 364.858 3.11416 
279 1 1 0.011155 -0.0385417 0.0114152 0 0 0 -1.91232e-07 3.81318e-07 6.51602e-07 7.56593e-07 -8.26526e-07 -2.17077e-07 -1.94886e-05 -8.55564e-06 3.28762e-05 0.004 624.239 -1.82548 
110 1 1 0.0250464 -0.0386627 0.0117241 0 0 0 -6.84019e-08 2.22663e-07 1.89691e-07 2.53954e-07 -1.88848e-07 -1.03133e-07 -1.44375e-05 3.85616e-05 -5.87235e-06 0.004 693.803 -3.1127 
188 1 1 -0.0179041 -0.0321007 0.0101564 0 0 0 -1.16684e-07 -4.24278e-07 5.26449e-07 5.14626e-07 -2.32528e-06 -7.83322e-08 2.65085e-06 -6.36828e-05 -7.47151e-05 0.004 415.745 2.78067 
810 1 1 -0.0102601 -0.034451 0.0102036 0 0 0 -5.8572e-08 -4.57562e-08 7.30272e-07 6.80252e-07 -1.37664e-06 -6.51376e-07 -6.64878e-06 -7.58382e-05 -1.64939e-06 0.004 465.404 2.07029 
412 1 1 -0.00316744 -0.0328806 0.0133527 0 0 0 -3.44948e-07 1.70275e-07 1.52287e-06 8.65087e-07 -1.40126e-06 -1.56855e-06 -5.12197e-06 -4.48366e-05 5.42181e-05 0.004 515.996 0.881727 