ITEM: TIMESTEP
36800
ITEM: NUMBER OF ATOMS
891
ITEM: BOX BOUNDS mm mm mm
-0.05 0.05
-0.05 0.05
0 0.15
ITEM: ATOMS id type type x y z ix iy iz vx vy vz fx fy fz omegax omegay omegaz radius f_Temp[0] f_heatFlux[0] 
199 1 1 -0.00444377 -0.0458158 0.00397435 0 0 0 -5.21756e-08 1.8948e-07 2.60294e-08 -1.81094e-07 9.98129e-08 1.85503e-07 -7.11698e-06 -1.02644e-05 3.75076e-05 0.004 491.753 2.62258 
873 1 1 -0.0201484 -0.0414789 0.0039016 0 0 0 4.39682e-07 2.49207e-07 2.37183e-07 1.6365e-07 2.91799e-07 6.50476e-08 4.55179e-05 7.93606e-05 -3.90606e-05 0.004 402.132 3.9721 
485 1 1 -0.0126796 -0.0442534 0.00397264 0 0 0 6.6932e-08 3.1619e-07 1.09819e-07 -6.75687e-08 2.70811e-07 9.64447e-08 -3.29449e-05 -5.38523e-05 4.80106e-05 0.004 437.222 4.10397 
850 1 1 0.00335642 -0.0441759 0.00394115 0 0 0 1.3283e-07 1.52228e-08 -1.83643e-07 -9.66533e-08 1.54692e-07 1.27589e-07 -3.25727e-05 4.12034e-05 -0.000157776 0.004 553.075 0.221996 
186 1 1 0.0114401 -0.0445988 0.00392827 0 0 0 1.21985e-07 -2.64149e-10 -2.64026e-07 -4.52526e-08 1.41829e-07 6.36863e-08 -1.39233e-05 -2.34566e-06 -1.53186e-05 0.004 641.884 -2.88399 
560 1 1 0.018969 -0.0420006 0.00394676 0 0 0 2.0838e-07 -8.18354e-08 -2.93808e-07 2.81337e-08 1.19376e-07 3.53639e-08 -2.87138e-06 -1.40311e-05 -1.41781e-05 0.004 676.95 -3.56057 
102 1 1 -0.0147501 -0.0357331 0.00386311 0 0 0 5.80997e-07 7.53374e-07 4.16951e-07 1.46777e-07 6.87813e-07 7.36042e-08 -6.43025e-05 6.07448e-05 4.98492e-05 0.004 426.741 3.32462 
88 1 1 -0.00730762 -0.0383837 0.00392727 0 0 0 4.04083e-07 4.29818e-07 -2.29954e-09 8.7071e-08 4.55985e-07 1.37512e-07 -8.18643e-05 8.80883e-05 -0.000120918 0.004 473.631 2.60674 
776 1 1 0.00520385 -0.0354368 0.00395024 0 0 0 5.31762e-07 2.8378e-07 -3.59771e-07 1.7693e-07 4.11316e-07 8.75292e-08 -5.91851e-05 4.19431e-05 -2.89765e-05 0.004 598.461 -1.33506 
410 1 1 0.0130236 -0.0368131 0.00392572 0 0 0 4.69285e-07 4.78834e-08 -6.14324e-07 4.03542e-08 2.73168e-07 5.84348e-08 -3.00562e-05 5.47577e-05 -4.37559e-05 0.004 649.802 -2.85119 
282 1 1 0.025876 -0.0381319 0.00388527 0 0 0 3.35036e-07 -7.54134e-08 -4.23414e-07 -1.30182e-07 4.27765e-08 -2.12594e-08 -6.51791e-05 5.63978e-05 -3.26916e-05 0.004 718.907 -3.88652 
682 1 1 -0.0302016 -0.0348779 0.00393465 0 0 0 2.97308e-07 1.3355e-07 2.60591e-07 4.16353e-08 3.51129e-07 1.12203e-07 2.07417e-05 -3.56423e-05 -3.63318e-05 0.004 351.939 3.36871 
251 1 1 -0.0224189 -0.0338476 0.00392332 0 0 0 6.06605e-07 4.90188e-07 6.62861e-07 2.85671e-07 6.12526e-07 1.36245e-07 -3.5303e-05 3.07205e-05 5.06509e-05 0.004 386.188 3.65726 
770 1 1 -0.00204754 -0.0321408 0.00393965 0 0 0 6.90293e-07 3.82973e-07 -3.78534e-07 2.02502e-07 2.31733e-07 -4.14194e-08 -0.000111948 9.80313e-05 -2.74522e-05 0.004 544.093 0.23671 
883 1 1 0.018166 -0.0307536 0.00390023 0 0 0 7.25903e-07 -1.13368e-07 -1.20054e-06 -3.74638e-08 3.54632e-07 1.19439e-07 2.73383e-06 0.000174798 -4.88254e-05 0.004 689.136 -3.44391 
838 1 1 0.0320336 -0.033109 0.00396073 0 0 0 4.71106e-07 -7.43757e-08 -8.82056e-07 -9.15919e-08 -1.85176e-08 9.03759e-08 -0.000140616 1.05352e-05 -5.17105e-05 0.004 745.762 -3.65149 
617 1 1 -0.0372521 -0.0271215 0.00391646 0 0 0 3.36749e-07 2.28205e-07 3.3625e-07 -6.88622e-08 3.06284e-07 4.12231e-08 2.17823e-06 -4.11944e-06 -2.05296e-05 0.004 326.747 2.64833 
824 1 1 -0.0292998 -0.0270298 0.00392984 0 0 0 6.71615e-07 3.03905e-07 4.66256e-07 -1.33873e-07 4.12066e-07 1.69824e-08 -4.00013e-08 7.81062e-05 -7.90913e-06 0.004 341.23 3.09036 
571 1 1 -0.0202615 -0.0262215 0.00393285 0 0 0 1.01524e-06 7.97809e-07 5.44701e-07 4.66958e-07 8.4927e-07 -1.09501e-07 -9.39157e-05 0.000202915 1.06205e-06 0.004 382.408 3.56849 
861 1 1 -0.00959294 -0.0297304 0.00389699 0 0 0 1.10247e-06 8.44835e-07 6.10987e-08 6.2329e-07 3.87892e-07 -1.75062e-07 -8.26097e-05 0.000194739 -0.000154299 0.004 465.444 2.34219 
434 1 1 0.0103455 -0.0293807 0.00393743 0 0 0 6.84398e-07 1.55582e-07 -7.73873e-07 1.36145e-07 2.93945e-07 6.67233e-08 1.19105e-05 7.03092e-05 1.07588e-05 0.004 640.737 -2.43365 
103 1 1 0.0311547 -0.0252347 0.00394363 0 0 0 6.64491e-07 -1.54787e-07 -1.26832e-06 1.37911e-07 1.05761e-08 9.30543e-09 7.7324e-05 -6.86091e-05 4.1099e-06 0.004 753.88 -3.29535 
769 1 1 -0.041344 -0.0202818 0.0039823 0 0 0 2.74903e-07 2.38752e-07 3.88551e-07 -1.55204e-07 2.7779e-07 9.91796e-08 4.66469e-05 -6.98374e-05 2.08165e-05 0.004 318.088 2.19254 
94 1 1 -0.0333714 -0.0202163 0.0039437 0 0 0 7.63344e-07 3.62602e-07 7.19796e-07 -2.67e-07 3.80409e-07 1.26441e-07 1.93151e-05 5.37358e-05 -2.34667e-05 0.004 329.708 2.63111 
40 1 1 -0.025401 -0.0201464 0.00391762 0 0 0 1.0405e-06 6.08525e-07 6.41465e-07 -3.86497e-07 1.53941e-07 -1.61576e-07 -9.63213e-06 8.36587e-05 -9.59118e-06 0.004 352.188 3.14135 
19 1 1 -0.00865072 -0.0218804 0.00393966 0 0 0 1.59682e-06 8.38421e-07 -1.64757e-07 1.21604e-06 1.4858e-07 -1.05405e-07 -8.16101e-05 0.000312632 3.94401e-05 0.004 467.355 2.24929 
442 1 1 -0.00043697 -0.02185 0.00393584 0 0 0 1.52935e-06 1.38884e-06 -4.72793e-07 1.30298e-06 2.60796e-07 -5.32219e-08 -0.000264028 0.000251215 3.83446e-05 0.004 552.314 0.0145906 
259 1 1 0.00753191 -0.0220001 0.00392512 0 0 0 1.06168e-06 7.80742e-07 -1.02522e-06 6.83436e-07 5.66278e-07 -1.45184e-07 -0.000232182 0.000124989 -0.000212196 0.004 626.444 -2.00285 
512 1 1 0.0153883 -0.0232356 0.00397835 0 0 0 7.34092e-07 1.95772e-07 -1.08241e-06 1.77304e-07 3.62812e-07 8.503e-08 -1.88193e-05 9.70123e-05 2.18806e-05 0.004 684.853 -3.12373 
470 1 1 0.0232616 -0.0243589 0.00390816 0 0 0 7.58513e-07 -1.34204e-07 -1.76922e-06 1.47077e-07 2.1552e-07 3.67974e-08 7.97936e-06 9.16016e-05 -5.93203e-05 0.004 725.682 -3.57693 
451 1 1 0.0390293 -0.0244875 0.00392048 0 0 0 4.59939e-07 7.34394e-08 -3.05592e-07 -2.43195e-08 -8.50064e-08 -6.33186e-08 -1.62698e-05 1.33933e-07 8.33923e-06 0.004 771.787 -2.6816 
531 1 1 -0.0164596 -0.0192004 0.00396126 0 0 0 1.08918e-06 7.01236e-07 3.1036e-08 1.96077e-07 6.18787e-07 -3.42117e-07 -3.62603e-05 0.00010091 -7.32984e-05 0.004 393.579 3.66295 
229 1 1 0.0202059 -0.0169136 0.00386876 0 0 0 1.19609e-06 1.27936e-07 -2.2796e-06 4.76011e-07 1.85013e-07 -1.6505e-07 -0.000124167 0.000135276 -0.000170746 0.004 715.596 -3.27147 
734 1 1 0.0280521 -0.017942 0.00394397 0 0 0 8.21402e-07 -1.59032e-08 -1.42842e-06 2.42482e-07 8.18688e-08 -7.40198e-08 -3.57024e-05 -6.71545e-05 7.29177e-05 0.004 753.245 -3.08386 
635 1 1 0.0425981 -0.0174495 0.00392192 0 0 0 6.43223e-07 -3.89578e-08 -5.09242e-07 2.57916e-08 -5.68796e-08 2.28627e-09 -2.74867e-05 0.000176212 -5.12559e-05 0.004 785.811 -1.83256 
87 1 1 -0.0448224 -0.0104639 0.0039142 0 0 0 4.35956e-07 3.63939e-09 2.35887e-07 -1.4289e-09 1.22962e-07 9.82764e-09 -6.45362e-06 5.05778e-05 4.53903e-05 0.004 309.379 1.42345 
406 1 1 -0.0373951 -0.013391 0.00396016 0 0 0 7.32254e-07 5.17113e-07 6.11748e-07 -4.68925e-07 4.6714e-07 2.43134e-07 -8.39823e-05 5.15111e-05 -4.3426e-05 0.004 316.844 1.98872 
224 1 1 -0.0230581 -0.0126019 0.00387961 0 0 0 1.28377e-06 1.01125e-06 6.83248e-07 -7.73727e-07 -5.65301e-07 -5.73404e-08 -7.08047e-05 0.000159433 4.94465e-05 0.004 365.443 3.0384 
751 1 1 -0.0102996 -0.0141546 0.00396945 0 0 0 1.52896e-06 5.58987e-07 -2.75373e-07 5.20747e-07 -2.85144e-07 -3.40413e-07 -0.000125613 0.000189132 -4.66465e-05 0.004 444.929 2.56427 
622 1 1 -0.00273389 -0.0117409 0.00388524 0 0 0 1.7685e-06 7.34855e-07 -1.13729e-06 6.17117e-07 -4.65762e-07 -8.67557e-07 -0.00016214 0.000251723 0.000114173 0.004 512.577 0.947037 
128 1 1 0.00951066 -0.010685 0.00388459 0 0 0 1.75504e-06 9.20181e-07 -1.86659e-06 1.33397e-06 4.73256e-07 -1.75326e-08 -0.000141793 0.000214837 -4.258e-05 0.004 650.325 -2.41261 
68 1 1 0.0262808 -0.010211 0.00395439 0 0 0 1.51226e-06 7.4872e-08 -1.98137e-06 4.70609e-07 1.43214e-07 -3.30907e-07 -1.53414e-05 0.000104372 -0.000188627 0.004 757.234 -2.9358 
791 1 1 0.0340945 -0.0118532 0.00392801 0 0 0 9.78129e-07 3.90972e-07 -1.18419e-06 4.41544e-07 1.7042e-07 -4.47293e-07 -0.000230098 0.000165845 5.62432e-05 0.004 777.897 -2.31125 
354 1 1 -0.0380748 -0.00550396 0.00392042 0 0 0 1.48313e-06 4.9405e-07 7.07592e-07 -5.83756e-07 3.64338e-07 1.84039e-07 -1.42837e-05 0.000266478 -6.42775e-05 0.004 315.004 1.76363 
725 1 1 -0.0304901 -0.00800531 0.0039252 0 0 0 1.16581e-06 2.51463e-07 2.12117e-07 -1.12311e-06 4.43822e-07 -2.90179e-07 1.02402e-05 0.000208014 -0.000119438 0.004 326.883 2.34914 
353 1 1 -0.0161288 -0.0087981 0.00391144 0 0 0 1.51308e-06 9.40562e-07 3.11466e-08 -4.40218e-07 -5.91394e-07 2.32459e-07 -0.000193689 0.000202362 -0.000171798 0.004 404.877 2.91903 
391 1 1 -0.00857661 -0.00639748 0.00391358 0 0 0 1.56737e-06 -2.06012e-07 -7.05713e-07 8.11276e-07 -1.34846e-06 5.69577e-08 0.00010999 0.000240209 1.86328e-05 0.004 462.743 2.09873 
683 1 1 0.0173533 -0.00945629 0.00390987 0 0 0 1.60439e-06 4.54204e-07 -2.1901e-06 9.63164e-07 3.33465e-07 -2.02749e-07 -1.32288e-05 0.00017806 -7.50759e-05 0.004 706.081 -3.20562 
690 1 1 0.0385537 -0.00520142 0.00390022 0 0 0 8.78237e-07 5.4107e-07 -1.63408e-06 3.60368e-07 2.07947e-07 -2.94793e-07 -0.000215854 0.000110856 -0.000208777 0.004 787.118 -1.63287 
10 1 1 0.0449635 -0.00990888 0.00397399 0 0 0 2.61439e-07 -1.23342e-07 -3.98399e-07 2.59156e-08 -5.90311e-09 -9.41961e-08 0.000100456 -8.26821e-05 5.72868e-05 0.004 791.141 -1.36457 
402 1 1 -0.046017 -0.00264172 0.00392182 0 0 0 7.85614e-07 -6.41564e-08 4.90634e-07 -1.0927e-07 8.03375e-08 1.56536e-07 3.81032e-05 5.73544e-05 -7.84225e-05 0.004 309.631 1.38056 
761 1 1 -0.0294744 -0.000168339 0.00392563 0 0 0 1.34864e-06 5.18511e-07 7.76575e-07 -1.03585e-06 1.69668e-07 -1.41171e-07 -2.09606e-05 0.000238852 8.19552e-05 0.004 337.281 2.56495 
293 1 1 -0.0229324 -0.00466873 0.0039595 0 0 0 1.13711e-06 1.23715e-06 4.27227e-07 -1.75394e-06 -1.17469e-06 1.28045e-08 -9.44636e-05 8.14309e-05 5.86829e-05 0.004 363.979 3.0477 
384 1 1 -0.0146963 -0.000881429 0.00398148 0 0 0 -8.53253e-05 -0.000536726 1.21823e-05 -1.56611e-06 -2.42013e-06 2.20074e-05 0.13421 -0.021204 0.145502 0.004 304.576 0 
378 1 1 0.00130609 -0.00490407 0.00392906 0 0 0 1.02289e-06 6.34802e-07 -1.12853e-06 7.54027e-07 -7.94028e-07 -9.90809e-07 0.000119398 0.000148934 0.000124189 0.004 555.795 -0.149458 
390 1 1 0.0103707 -0.00276531 0.00396886 0 0 0 1.33367e-06 8.90764e-07 -1.47631e-06 1.05494e-06 4.05052e-07 -3.78863e-07 9.25467e-05 0.000292445 0.000208245 0.004 665.038 -2.911 
411 1 1 0.0223603 -0.00329286 0.00397626 0 0 0 1.63552e-06 3.23083e-07 -2.54511e-06 9.44433e-07 4.92413e-07 -4.99974e-07 -0.0001605 0.000209803 5.56002e-05 0.004 740.536 -3.29213 
342 1 1 0.0307348 -0.00361665 0.00397529 0 0 0 8.9489e-07 2.78026e-07 -1.06375e-06 -2.87824e-08 3.60047e-07 -1.20931e-07 3.74762e-05 5.76421e-05 0.000260803 0.004 777.817 -2.22773 
262 1 1 0.0460221 -0.00206505 0.00395833 0 0 0 4.7316e-07 2.53903e-07 -4.27141e-07 2.14501e-07 7.92744e-08 -1.48487e-07 -0.000184203 5.56133e-05 -0.000142329 0.004 791.502 -1.32373 
261 1 1 -0.0398214 0.002246 0.00393476 0 0 0 1.08308e-06 1.61247e-07 7.84378e-07 -1.77909e-07 4.66806e-07 1.52664e-07 9.52389e-06 7.12952e-05 0.000142146 0.004 315.415 1.71667 
666 1 1 -0.00454676 0.000451424 0.00395605 0 0 0 9.61843e-07 1.57662e-07 -8.62088e-07 1.61522e-06 -1.14874e-06 -8.18991e-07 2.2531e-05 -2.43799e-05 1.40411e-05 0.004 501.787 1.26215 
815 1 1 0.00434367 0.0024356 0.00392712 0 0 0 1.0875e-06 8.05975e-07 -7.842e-07 1.08189e-07 -9.72743e-07 -7.69634e-07 -0.000199632 0.000201018 -8.58675e-05 0.004 601.478 -1.34322 
306 1 1 0.01637 0.00247666 0.0039581 0 0 0 1.24134e-06 1.00101e-06 -1.95592e-06 4.33102e-07 1.06325e-06 -5.86053e-07 -0.000124765 0.000157035 -0.000167841 0.004 711.595 -3.53879 
178 1 1 0.0241042 0.00444176 0.00386115 0 0 0 1.2972e-06 4.68018e-07 -2.72899e-06 6.48945e-07 7.31966e-07 -8.21222e-07 0.000186133 0.000257646 7.00469e-05 0.004 744.04 -3.15781 
862 1 1 0.0320656 0.00423367 0.00393098 0 0 0 9.37527e-07 3.08789e-07 -2.20475e-06 3.92027e-07 3.44678e-07 -7.24875e-07 -0.000234353 -0.000117004 -0.000128983 0.004 772.223 -2.38621 
661 1 1 0.0398756 0.0029147 0.0039468 0 0 0 9.01527e-07 4.90903e-07 -1.07806e-06 3.05001e-07 -1.82307e-08 -2.51437e-07 -0.000248519 7.4345e-05 2.0774e-05 0.004 786.356 -1.67261 
677 1 1 -0.0453782 0.00788539 0.00393641 0 0 0 3.91116e-07 -3.78436e-08 3.64432e-07 -3.81967e-08 2.66726e-07 1.47252e-08 -6.27011e-05 1.33959e-05 3.12798e-07 0.004 309.93 1.42659 
12 1 1 -0.0333161 0.0067196 0.00393696 0 0 0 7.84091e-07 4.42053e-07 6.46326e-07 2.44547e-07 4.48684e-07 4.22976e-09 -0.000134295 9.08211e-05 5.0679e-05 0.004 328.774 2.29903 
420 1 1 -0.0254 0.00664838 0.00392687 0 0 0 7.9348e-07 1.00245e-06 6.87156e-07 2.15058e-07 -4.52283e-07 -7.06573e-07 -0.000151323 -3.99424e-05 0.000147029 0.004 354.324 2.82007 
654 1 1 -0.0175134 0.00720947 0.00387213 0 0 0 9.84831e-07 1.1193e-06 3.16698e-07 3.33367e-07 -5.46773e-07 -1.11932e-06 -0.000222036 0.00024146 -1.37059e-05 0.004 394.565 2.8561 
145 1 1 -0.00454408 0.00836537 0.00386311 0 0 0 4.75464e-07 4.96272e-07 -4.61555e-07 8.29146e-07 -1.27042e-06 -3.08186e-07 1.8453e-05 0.000136045 0.00031845 0.004 500.502 1.25016 
624 1 1 0.0451449 0.00890653 0.00390657 0 0 0 1.08909e-06 4.86991e-07 -9.93543e-07 2.82871e-07 1.02177e-07 -2.63498e-07 -5.64368e-05 0.000182611 1.14835e-05 0.004 789.671 -1.48596 
613 1 1 -0.0372991 0.0135339 0.00384344 0 0 0 5.50526e-07 1.90786e-07 5.89094e-07 4.23367e-07 6.0519e-07 2.66817e-08 -6.79779e-06 0.000120567 -3.23887e-05 0.004 319.411 2.03341 
265 1 1 -0.0293062 0.0135429 0.00396372 0 0 0 4.04769e-07 5.27353e-07 1.30405e-07 5.67172e-07 9.99145e-08 -2.6712e-07 2.17294e-07 3.07766e-05 1.62393e-05 0.004 340.374 2.81426 
273 1 1 -0.0213694 0.0141274 0.00392939 0 0 0 3.85641e-07 7.19935e-07 5.0041e-08 1.90388e-07 -3.64849e-07 -4.88233e-07 -5.72453e-05 2.97409e-05 8.73584e-05 0.004 366.761 3.161 
492 1 1 -0.01145 0.0123712 0.00398079 0 0 0 4.59683e-07 2.25564e-07 6.23622e-07 1.15462e-06 4.42605e-07 1.018e-06 0.00012953 1.4859e-05 5.64611e-05 0.004 443.437 2.77956 
234 1 1 0.00585284 0.010393 0.00392891 0 0 0 7.98992e-07 1.00328e-06 -7.99303e-07 -3.87022e-07 -2.1923e-07 -7.55131e-07 2.75823e-05 0.000104699 0.000274097 0.004 596.773 -1.05519 
160 1 1 0.0142843 0.0106356 0.00390958 0 0 0 1.40565e-06 1.43619e-06 -1.47252e-06 -8.09413e-07 8.20683e-07 -6.28176e-07 -0.000170865 0.000260676 -0.000142205 0.004 681.488 -2.81086 
484 1 1 0.0220893 0.0120738 0.0039012 0 0 0 1.17531e-06 7.6169e-07 -1.80133e-06 -3.39589e-07 5.27828e-07 -5.9926e-07 -0.000139941 1.07742e-06 -6.80714e-05 0.004 730.864 -3.14964 
743 1 1 0.0300184 0.0126216 0.00398127 0 0 0 1.08061e-06 7.91115e-07 -6.83018e-07 4.69206e-08 3.07945e-07 -4.02258e-08 -0.000100148 -3.00461e-05 0.000106701 0.004 758.797 -2.80962 
514 1 1 0.0379536 0.0130186 0.00386906 0 0 0 1.22475e-06 7.76926e-07 -1.56959e-06 4.08863e-07 1.84818e-07 -4.26976e-07 -0.00021195 0.000272963 -0.00016686 0.004 778.721 -2.13276 
530 1 1 -0.0159002 0.0198648 0.00392796 0 0 0 1.37106e-07 6.06923e-07 4.54602e-07 9.61184e-07 -4.30234e-07 -9.89784e-07 -2.49985e-05 -2.52934e-06 -4.26091e-05 0.004 395.619 3.24768 
227 1 1 -0.00736503 0.0192084 0.00396595 0 0 0 -5.84157e-08 1.05215e-06 4.00784e-07 8.68596e-07 -8.59647e-07 9.65287e-07 -0.000167537 -1.72488e-05 5.39693e-05 0.004 479.712 2.12151 
392 1 1 -0.000498633 0.0151513 0.00394447 0 0 0 2.0619e-07 6.85353e-07 -1.22336e-07 2.02347e-07 -4.99461e-07 -4.40576e-07 4.97451e-05 -1.29527e-05 -0.000229301 0.004 537.003 0.518358 
493 1 1 0.00985839 0.0172531 0.00394648 0 0 0 1.03508e-06 1.57046e-06 -8.51902e-07 -5.28645e-07 1.94402e-07 -5.86721e-07 -0.000187492 0.000166783 -5.01017e-05 0.004 637.197 -1.9335 
34 1 1 0.0176357 0.0187852 0.003941 0 0 0 1.06554e-06 1.22817e-06 -1.62014e-06 -5.56691e-07 1.4701e-07 -5.43032e-07 -0.000356446 0.000111491 -0.000163011 0.004 694.023 -2.85582 
206 1 1 0.0255397 0.0192353 0.00396993 0 0 0 9.53605e-07 6.7181e-07 -1.19559e-06 -1.63274e-07 3.59268e-07 -3.4813e-07 -5.91749e-05 -0.000196244 7.99272e-07 0.004 738.668 -3.07862 
104 1 1 0.0334175 0.0199346 0.0038965 0 0 0 1.21439e-06 8.23801e-07 -1.2042e-06 4.68714e-07 2.20825e-07 -3.69386e-07 -0.000183215 0.000289598 2.74096e-05 0.004 764.202 -2.73877 
809 1 1 -0.0412058 0.0204949 0.00395497 0 0 0 1.71732e-07 1.66178e-07 3.39058e-07 -3.02685e-08 4.13693e-07 2.20118e-08 -7.38994e-05 -4.10338e-06 6.55595e-05 0.004 314.523 1.90472 
773 1 1 -0.0331523 0.0204531 0.00393522 0 0 0 3.57488e-07 2.17439e-07 5.59319e-07 6.9434e-07 5.37307e-07 1.53718e-07 -3.76995e-05 0.000114186 8.96785e-05 0.004 331.72 2.78474 
792 1 1 0.00347677 0.0219735 0.00392106 0 0 0 7.00382e-07 1.08343e-06 -3.19268e-07 -5.45905e-07 1.82514e-07 -9.20534e-08 -0.000162045 0.000136 0.000219726 0.004 581.406 -0.676799 
718 1 1 0.0413199 0.0203659 0.00392989 0 0 0 7.41013e-07 4.65768e-07 -8.35354e-07 3.32266e-07 1.46918e-07 -2.98053e-07 -4.46702e-05 -2.44455e-05 -1.5486e-06 0.004 778.129 -2.28671 
101 1 1 -0.0371146 0.0272995 0.00390402 0 0 0 1.45188e-07 6.89099e-08 2.12107e-07 4.06556e-07 1.41416e-07 2.40595e-07 -3.09086e-05 2.19498e-05 -1.39346e-05 0.004 324.977 2.5613 
246 1 1 -0.0290567 0.0272807 0.00398271 0 0 0 -2.48566e-07 9.73008e-08 3.417e-07 6.10867e-07 5.70028e-07 5.34459e-07 -1.61493e-05 -0.000114782 9.35126e-06 0.004 337.909 3.2298 
331 1 1 -0.0212281 0.0257798 0.00390018 0 0 0 2.68e-07 5.08761e-07 4.97624e-07 1.49878e-06 -2.86338e-07 5.50295e-07 -0.000101373 0.000139915 0.000140625 0.004 368.642 3.37629 
846 1 1 -0.0134708 0.0274168 0.0039748 0 0 0 4.32607e-07 4.24982e-07 2.79823e-08 6.46306e-07 3.65542e-07 4.59957e-08 -7.75533e-05 -6.28641e-05 -0.000190213 0.004 415.878 2.95191 
348 1 1 -0.00329916 0.0260612 0.00393374 0 0 0 8.02672e-07 8.11802e-07 1.55921e-07 -4.262e-08 -8.31853e-07 1.24745e-07 -0.000118702 0.000187391 -0.000199732 0.004 520.49 0.940011 
786 1 1 0.00840353 0.0281551 0.00389685 0 0 0 5.44483e-07 1.30248e-06 -8.39318e-07 -2.31742e-07 4.4149e-07 -3.84853e-07 -0.000210636 5.6431e-05 -7.12177e-05 0.004 621.894 -1.79931 
316 1 1 0.0162833 0.0272928 0.0039063 0 0 0 6.70835e-07 1.13898e-06 -9.2926e-07 -1.40305e-07 2.75273e-07 -5.08473e-07 -0.000131243 3.51506e-05 -5.73788e-05 0.004 686.776 -3.14612 
495 1 1 0.0288861 0.0264618 0.00396716 0 0 0 7.79503e-07 6.24811e-07 -7.70788e-07 5.99675e-07 3.51274e-07 -5.87041e-07 -9.37852e-05 7.84326e-05 1.82762e-05 0.004 751.242 -3.22431 
863 1 1 0.0367263 0.0277633 0.00392936 0 0 0 4.43545e-07 4.06996e-07 -4.77473e-07 4.1868e-07 5.61125e-08 -2.55441e-07 -4.94194e-05 2.92065e-05 4.12977e-06 0.004 770.677 -2.81657 
511 1 1 -0.00761835 0.0327132 0.00388553 0 0 0 3.83747e-07 4.58821e-07 1.50216e-07 4.03647e-07 3.56939e-07 4.51694e-07 -3.75595e-05 4.789e-05 0.000264018 0.004 488.428 1.65403 
722 1 1 0.00164033 0.0322874 0.00396636 0 0 0 4.88075e-07 7.12213e-07 -3.04253e-07 1.83673e-07 2.32868e-07 1.32719e-07 4.39368e-05 0.00013285 0.000238075 0.004 565.422 -0.352079 
2 1 1 0.0229311 0.031696 0.00396244 0 0 0 7.57958e-07 5.37503e-07 -7.35098e-07 6.98935e-07 2.78567e-07 -6.56501e-07 -2.6004e-05 5.528e-05 -3.84436e-05 0.004 719.589 -3.6937 
254 1 1 0.0305085 0.0343769 0.0039815 0 0 0 0.000481608 -0.000706171 8.9311e-14 5.77664e-18 -1.00485e-17 -1.20214e-12 0.176952 0.120681 -0.0211551 0.004 798.547 0 
257 1 1 -0.0296322 0.0352231 0.00395613 0 0 0 -9.76237e-08 1.95299e-08 2.58369e-07 6.3469e-07 4.07694e-07 1.74661e-07 -1.43591e-05 -3.47415e-05 -3.85515e-05 0.004 340.961 3.524 
582 1 1 -0.0157655 0.0356205 0.00393205 0 0 0 9.13041e-08 -7.53114e-07 1.82282e-07 1.64097e-06 2.16252e-06 -1.74024e-07 0.00017691 3.15877e-05 -0.000173425 0.004 386.727 4.08 
255 1 1 -0.00267125 0.038932 0.00391148 0 0 0 -2.97133e-07 4.66876e-07 9.39593e-08 3.63667e-07 6.25029e-07 -1.7185e-07 -6.25748e-05 -5.95271e-05 -3.13982e-05 0.004 522.82 0.812468 
887 1 1 0.00812084 0.0373183 0.00392889 0 0 0 2.06624e-07 4.89838e-07 -1.64774e-07 6.74709e-07 1.04802e-06 -3.37893e-07 -9.27099e-05 2.44762e-05 -0.000112814 0.004 638.779 -2.71357 
719 1 1 0.0157853 0.0351951 0.00398364 0 0 0 4.11083e-07 4.40808e-07 -4.52575e-07 3.60791e-07 2.86149e-07 -2.96883e-07 0.000109658 6.04324e-05 0.000147337 0.004 687.557 -3.57651 
21 1 1 0.0234243 0.0396338 0.00391497 0 0 0 1.39872e-07 1.78407e-07 -1.75306e-07 1.76605e-07 7.40772e-08 -1.62347e-07 2.32831e-05 1.49029e-05 9.33219e-05 0.004 721.969 -3.92689 
325 1 1 -0.0222388 0.0402984 0.00393951 0 0 0 1.03217e-07 -9.71719e-08 2.68146e-07 5.59145e-07 4.05764e-07 3.1178e-07 -4.01642e-06 -1.77734e-05 -3.27162e-05 0.004 375.025 4.15197 
595 1 1 -0.014931 0.0435393 0.00398254 0 0 0 1.86535e-07 -1.96469e-07 2.43637e-07 -3.85516e-08 7.55519e-07 -7.48616e-07 -7.29958e-05 5.95906e-05 9.73334e-05 0.004 410.18 3.84605 
568 1 1 0.0162912 0.0430934 0.00392629 0 0 0 -2.73113e-08 1.82382e-07 -3.38831e-08 2.69005e-07 2.59023e-07 -2.11002e-07 -1.88221e-05 -2.8915e-06 -5.60833e-05 0.004 684.274 -3.53328 
387 1 1 -0.00719691 0.045487 0.00389933 0 0 0 -2.02697e-07 1.87087e-07 2.41878e-08 -6.05141e-08 4.12567e-07 -3.4405e-07 -9.4864e-06 -4.51218e-05 -1.96328e-05 0.004 491.602 1.76238 
852 1 1 0.000758887 0.0460615 0.00397617 0 0 0 -9.55878e-08 1.57596e-07 2.96227e-08 1.43433e-07 2.81101e-07 -3.24869e-07 -1.47969e-05 2.81433e-06 -2.82941e-05 0.004 554.637 -0.140865 
157 1 1 0.00865317 0.0452492 0.00389825 0 0 0 7.03878e-08 2.64411e-07 -8.40302e-08 4.34393e-07 5.37767e-07 -3.33576e-07 -2.80964e-05 8.0819e-06 3.99787e-05 0.004 629.259 -2.342 
400 1 1 -0.024752 -0.0387964 0.00974418 0 0 0 7.48524e-07 1.48383e-07 4.30677e-07 1.64333e-07 3.57008e-07 -6.23761e-08 7.9777e-05 -2.29689e-05 -0.000113767 0.004 370.73 4.00736 
606 1 1 -0.000653939 -0.0387266 0.00813891 0 0 0 8.26135e-07 4.79684e-07 -3.34364e-07 3.08118e-07 5.47515e-07 2.06146e-07 -1.68511e-05 5.27426e-05 1.98901e-05 0.004 548.729 0.242369 
724 1 1 -0.0339144 -0.0311598 0.00984801 0 0 0 7.87486e-07 4.44902e-07 3.33019e-07 9.03561e-08 6.28974e-07 -3.23872e-08 -7.61853e-05 0.000138467 1.90737e-05 0.004 335.024 2.97691 
183 1 1 0.0251947 -0.0311656 0.00751475 0 0 0 8.02811e-07 1.87301e-08 -1.89495e-06 -8.75527e-08 2.14486e-07 1.19185e-07 -0.000133782 1.64671e-05 1.05904e-05 0.004 728.432 -3.6876 
544 1 1 -0.0140218 -0.0253028 0.00874964 0 0 0 2.30415e-06 1.79814e-06 1.5002e-07 1.26302e-06 1.85973e-06 -6.68849e-07 -9.67581e-05 4.59078e-05 -2.18062e-05 0.004 421.901 3.03011 
29 1 1 -0.00450628 -0.0263793 0.00900728 0 0 0 2.48563e-06 1.39331e-06 -5.08935e-07 1.61384e-06 5.90901e-07 -9.16398e-08 6.82398e-05 1.12572e-05 7.44067e-05 0.004 499.387 1.48489 
248 1 1 0.00349901 -0.0278426 0.00763308 0 0 0 1.30179e-06 9.39015e-07 -1.74985e-06 4.40396e-07 4.77395e-07 2.17379e-07 -0.000369472 -2.5963e-05 -0.000114422 0.004 585.899 -1.01523 
79 1 1 0.035837 -0.0289489 0.00959647 0 0 0 4.9751e-07 -3.58929e-07 -1.30331e-06 8.77733e-08 1.64133e-08 1.2679e-07 0.000149449 -0.000328419 8.51284e-05 0.004 761.712 -3.11543 
291 1 1 -0.00458872 -0.0173975 0.00909523 0 0 0 2.93875e-06 1.66388e-06 -8.99839e-07 2.26504e-06 3.28454e-07 -5.07486e-07 -3.10047e-05 7.05146e-05 2.04107e-05 0.004 509.128 1.02946 
891 1 1 0.00373489 -0.015528 0.00632508 0 0 0 2.29004e-06 1.5579e-06 -1.89886e-06 1.74099e-06 6.03425e-07 -7.19028e-08 2.47231e-05 6.71235e-06 -7.82834e-05 0.004 585.204 -0.914712 
870 1 1 0.0138323 -0.0156364 0.00831017 0 0 0 2.82312e-06 9.30582e-07 -3.56e-06 1.26415e-06 9.76413e-07 -1.33339e-07 3.67788e-05 0.000146389 -6.33491e-06 0.004 672.872 -2.88395 
777 1 1 0.034969 -0.018778 0.00771 0 0 0 6.95081e-07 2.45121e-07 -7.76707e-07 3.78514e-07 3.13682e-07 -2.34363e-07 4.82225e-05 -0.000130789 -9.63757e-05 0.004 773.042 -2.60034 
837 1 1 -0.029449 -0.0146727 0.00803326 0 0 0 1.66416e-06 8.40883e-07 9.7469e-07 -5.50943e-07 5.68279e-07 1.48716e-08 -0.000177406 5.41444e-05 0.000104293 0.004 337.396 2.65599 
445 1 1 -0.0181359 -0.0138493 0.00995276 0 0 0 3.63605e-06 2.40297e-06 3.62052e-07 9.32567e-08 5.39378e-07 -5.74337e-07 -6.16989e-05 0.000177955 0.000316485 0.004 391.371 3.05791 
783 1 1 0.00485898 -0.00860658 0.00993769 0 0 0 3.16386e-06 1.68375e-06 -3.04333e-06 1.83113e-06 1.05446e-06 -7.16209e-07 -0.000114344 0.000288902 0.000144409 0.004 598.311 -1.23121 
615 1 1 -0.0350999 -0.000758719 0.00955182 0 0 0 2.60178e-06 7.25473e-07 1.40747e-06 -8.91653e-07 1.10793e-06 3.88713e-07 -4.12892e-05 1.79809e-05 -2.28547e-05 0.004 321.345 1.97434 
476 1 1 -0.0459522 0.00262139 0.00988978 0 0 0 9.09018e-07 -9.3184e-08 7.01296e-07 -2.61796e-08 1.88851e-07 3.43232e-07 2.55131e-05 -6.13879e-05 7.11644e-05 0.004 308.072 1.26231 
16 1 1 -0.0210456 0.00169438 0.00830926 0 0 0 1.73475e-06 1.84825e-06 1.26804e-06 -1.34544e-06 -1.25444e-06 -9.51228e-07 9.51461e-06 9.70189e-05 -0.000111127 0.004 372.395 2.95678 
303 1 1 0.0459492 0.00350463 0.00962657 0 0 0 1.20842e-06 6.67542e-07 -1.91187e-06 4.48631e-07 5.61818e-08 -3.96908e-07 7.58783e-05 -0.000399342 -0.000119979 0.004 790.509 -1.40082 
523 1 1 -0.0389797 0.0080308 0.00932861 0 0 0 1.30303e-06 6.07106e-08 1.4074e-06 3.22711e-07 1.08118e-06 1.67525e-07 4.80085e-05 0.000133754 0.00011442 0.004 315.914 1.77 
704 1 1 -0.010798 0.00519222 0.00743861 0 0 0 1.2227e-06 -1.27083e-07 -1.43764e-06 -2.62024e-07 -2.80396e-06 -2.74775e-06 0.000473926 0.000199585 -0.000447714 0.004 442.132 3.632 
454 1 1 0.0010118 0.00715931 0.00933957 0 0 0 1.76363e-06 2.01945e-06 -2.01594e-06 4.92445e-07 -8.60084e-07 -1.70813e-06 -0.000221518 -6.92699e-06 -0.000112513 0.004 554.369 -0.0909563 
31 1 1 0.0102164 0.0054759 0.00832591 0 0 0 2.75185e-06 1.97172e-06 -2.6429e-06 2.21962e-08 8.75885e-07 -1.10975e-06 7.78855e-05 0.000194823 0.000189894 0.004 642.31 -2.18149 
135 1 1 0.0188886 0.00749169 0.00960784 0 0 0 3.95286e-06 1.48735e-06 -3.80071e-06 1.29939e-06 1.32965e-06 -1.06443e-06 -1.8918e-05 0.000771153 6.83748e-05 0.004 723.279 -3.47033 
712 1 1 0.0281139 0.00743266 0.00998856 0 0 0 3.43455e-06 2.39435e-06 -5.58415e-06 1.57792e-06 1.28507e-06 -1.6964e-06 -0.000700579 0.000547815 0.000176512 0.004 756.788 -2.90193 
210 1 1 0.0394934 0.00814606 0.0098988 0 0 0 2.84513e-06 1.02414e-06 -3.04258e-06 7.81863e-07 2.6478e-07 -8.07356e-07 0.000109226 0.000382631 4.58497e-05 0.004 784.812 -1.79174 
651 1 1 -0.0437987 0.0143398 0.00823566 0 0 0 5.05552e-07 1.50302e-09 5.86168e-07 3.21246e-07 4.67051e-07 1.42589e-08 4.98566e-05 -3.61076e-05 4.92339e-05 0.004 312.574 1.66604 
621 1 1 0.0437182 0.0147846 0.00900765 0 0 0 1.43757e-06 5.24066e-07 -1.57412e-06 5.34477e-07 6.84353e-08 -4.5806e-07 0.000166777 -0.000190225 3.30174e-05 0.004 783.324 -1.90996 
726 1 1 -0.0257657 0.0199972 0.00692824 0 0 0 6.61466e-07 5.62146e-07 7.74149e-07 1.44807e-06 -1.13753e-07 1.84555e-07 0.000168204 2.03802e-05 -9.83963e-05 0.004 349.898 3.16071 
230 1 1 -0.00847467 0.024595 0.00973776 0 0 0 1.35953e-06 3.15188e-06 6.54456e-07 8.25686e-07 5.45348e-07 3.22544e-07 2.81462e-05 -3.698e-05 -0.000510354 0.004 479.469 1.90408 
320 1 1 -0.00171266 0.020405 0.00979386 0 0 0 1.43541e-06 1.90513e-06 -5.10947e-08 -6.49709e-07 -1.04971e-06 4.3824e-07 -0.000110321 0.000221875 0.000112529 0.004 534.409 0.615952 
7 1 1 0.0129211 0.0224303 0.00918519 0 0 0 2.59374e-06 2.25756e-06 -2.11e-06 -3.69038e-07 7.79493e-07 -1.18112e-06 9.30033e-05 0.00037146 0.000205234 0.004 665.515 -2.6607 
83 1 1 0.0214164 0.0239651 0.00888426 0 0 0 1.73702e-06 1.33611e-06 -2.28915e-06 4.24553e-07 6.53524e-07 -1.21349e-06 0.000149517 0.000421272 5.55349e-05 0.004 726.593 -3.30945 
747 1 1 -0.0337321 0.0313835 0.00974072 0 0 0 1.08084e-07 1.74951e-07 4.5232e-07 7.92596e-07 3.00391e-07 4.94339e-07 -2.21569e-05 -0.000102461 4.15869e-05 0.004 337.545 3.05899 
51 1 1 -0.0226192 0.0329654 0.00703451 0 0 0 -4.40493e-08 1.87745e-07 3.96859e-07 2.00212e-06 6.83096e-07 9.26501e-07 -3.27639e-05 9.75539e-05 5.8563e-07 0.004 360.276 3.82203 
116 1 1 -0.00940735 0.0391203 0.00809817 0 0 0 -1.66133e-07 4.71828e-07 3.64499e-07 9.258e-07 1.04051e-06 4.17873e-08 -5.18937e-05 0.000148562 4.62088e-05 0.004 480.874 1.98129 
205 1 1 -0.000560456 -0.0460776 0.0110171 0 0 0 4.9751e-07 2.4031e-07 -1.47833e-07 2.57167e-08 2.83729e-07 7.10182e-08 -1.38333e-05 1.13274e-05 -0.000103999 0.004 549.922 0.29798 
836 1 1 0.00737985 -0.0454688 0.0106611 0 0 0 3.642e-07 1.09825e-07 -4.54904e-07 -7.69882e-08 2.54872e-07 8.27003e-08 -8.42976e-05 7.02712e-05 2.42354e-06 0.004 599.986 -1.48449 
486 1 1 -0.0156916 -0.0402432 0.0103352 0 0 0 1.00794e-06 6.95816e-07 2.20178e-07 3.20332e-07 7.54461e-07 -7.29456e-08 7.08725e-05 -5.65216e-05 0.000185169 0.004 415.161 3.79619 
311 1 1 -0.0083681 -0.0439882 0.0106791 0 0 0 3.02466e-07 9.63078e-07 7.04485e-08 -3.31967e-07 4.92737e-07 1.03259e-07 -0.00014118 0.000110541 -0.000170029 0.004 467.308 3.5816 
447 1 1 0.0180551 -0.0423881 0.0118323 0 0 0 4.25456e-07 -1.78457e-07 -8.15295e-07 -3.10785e-08 1.76817e-07 6.95721e-08 -0.000106263 -2.73089e-05 -1.74619e-06 0.004 670.254 -3.38156 
538 1 1 -0.0295743 -0.035351 0.0149849 0 0 0 1.33908e-06 6.57919e-07 4.13645e-07 4.11674e-07 7.44234e-07 -2.72385e-07 -2.48917e-05 2.65753e-05 -0.000110303 0.004 349.576 3.43267 
279 1 1 0.011155 -0.0385417 0.0114152 0 0 0 1.03187e-06 1.45287e-07 -1.39543e-06 4.43311e-08 5.11095e-07 6.8544e-08 -2.81795e-05 4.92507e-05 -0.000155201 0.004 633.99 -2.40251 
110 1 1 0.0250464 -0.0386627 0.0117241 0 0 0 4.41553e-07 -3.39228e-07 -6.97438e-07 8.55612e-08 2.07622e-07 3.97767e-08 6.08404e-05 -0.00010374 -1.45539e-05 0.004 709.883 -3.82111 
188 1 1 -0.0179041 -0.0321007 0.0101564 0 0 0 1.71535e-06 1.82955e-06 8.1118e-07 5.18242e-07 2.07984e-06 -3.0663e-07 -0.00018479 0.000164242 -8.31332e-05 0.004 401.371 3.42101 
810 1 1 -0.0102601 -0.034451 0.0102036 0 0 0 1.46432e-06 1.36371e-06 2.37181e-07 3.50368e-07 1.3288e-06 -4.67727e-08 -6.18163e-05 0.000144104 -0.000111798 0.004 454.364 2.71213 
412 1 1 -0.00316744 -0.0328806 0.0133527 0 0 0 2.2454e-06 1.32049e-06 -6.77378e-07 6.41391e-07 1.14826e-06 4.44641e-08 -7.76824e-05 8.15524e-05 -6.4061e-05 0.004 511.202 1.20246 
545 1 1 0.00452054 -0.0343088 0.0121941 0 0 0 1.72396e-06 9.38406e-07 -1.24e-06 3.70181e-07 7.63257e-07 2.08592e-07 -2.4542e-05 0.000150963 -7.38123e-05 0.004 588.562 -1.04988 