ITEM: TIMESTEP
3200
ITEM: NUMBER OF ATOMS
891
ITEM: BOX BOUNDS mm mm mm
-0.05 0.05
-0.05 0.05
0 0.15
ITEM: ATOMS id type type x y z ix iy iz vx vy vz fx fy fz omegax omegay omegaz radius f_Temp[0] f_heatFlux[0] 
199 1 1 -0.00576951 -0.0456915 0.00404578 0 0 0 0.0776195 0.0167445 -0.0665366 0.24979 -0.208651 -0.272528 -1.15998 -0.307277 -1.98374 0.004 300 0 
873 1 1 -0.0206595 -0.0408718 0.00385619 0 0 0 0.0238984 -0.0519864 0.0474714 0.0500132 -0.247995 0.18347 0.568924 2.26563 -11.976 0.004 300 0 
850 1 1 0.00111255 -0.0416418 0.003803 0 0 0 0.106422 0.0490912 -0.00426039 -0.0770067 -0.0611699 0.187906 3.94478 7.20398 7.6324 0.004 300 0 
186 1 1 0.00812526 -0.0454139 0.00392531 0 0 0 -0.00562371 0.0047509 -0.0374633 -0.0950661 0.36955 -0.336463 20.9613 -1.91363 -5.57997 0.004 300 0 
560 1 1 0.0159075 -0.0431551 0.0039221 0 0 0 0.108218 -0.139131 -0.131065 0.0701011 -0.219219 -0.410664 -7.40873 -4.30559 1.48866 0.004 300 0 
88 1 1 -0.00564668 -0.037607 0.00388161 0 0 0 -0.0151993 -0.146833 -0.0288832 -0.00507019 0.18022 -0.605319 34.926 7.45653 3.26785 0.004 300 0 
838 1 1 0.0299064 -0.03514 0.00393458 0 0 0 0.0608486 0.0170033 0.0221082 -0.270655 -0.335929 0.0326512 -7.96081 2.61277 -17.0762 0.004 300 0 
682 1 1 -0.030693 -0.034431 0.00397272 0 0 0 0.052358 -0.0268787 0.00701864 0.0116824 0.0159064 -0.000437014 7.44297 8.07245 -13.7272 0.004 300 0 
251 1 1 -0.0228658 -0.0332913 0.00388173 0 0 0 0.0694442 -0.151073 -0.0660437 0.0278857 -0.0130125 -0.0138312 1.0128 -11.3544 9.93089 0.004 300 0 
102 1 1 -0.0150645 -0.0347402 0.00393854 0 0 0 0.0169824 -0.239576 0.0300129 0.0189852 -0.0601203 0.0754037 16.7628 6.31863 -21.0223 0.004 300 0 
776 1 1 0.00503264 -0.0348201 0.00377195 0 0 0 0.0194941 0.0166467 0.0297474 -0.18402 -0.0321554 0.172878 3.65776 10.0446 -0.705694 0.004 300 0 
883 1 1 0.0180369 -0.0341511 0.00384786 0 0 0 0.0146791 0.100158 0.0033678 -0.200393 0.221937 -0.395789 21.574 -8.99424 -7.047 0.004 300 0 
617 1 1 -0.0366043 -0.0280685 0.00399616 0 0 0 -0.107647 0.0963985 0.0422014 -0.06192 0.139622 -0.0294999 6.35194 3.39756 -8.35978 0.004 300 0 
824 1 1 -0.02888 -0.0267591 0.00385652 0 0 0 -0.0994317 -0.00481975 0.0730075 0.0883843 0.0169779 -0.028841 1.73987 -13.9089 22.5896 0.004 300 0 
571 1 1 -0.0199877 -0.0259538 0.0038987 0 0 0 -0.133722 -0.126448 0.0458811 -0.081806 -0.0737191 -0.0918783 2.17319 -3.62334 17.0128 0.004 300 0 
861 1 1 -0.0109089 -0.0280094 0.00391611 0 0 0 0.128197 -0.246436 -0.0161334 -0.0535343 -0.157752 0.0541937 4.18951 14.6245 17.3801 0.004 300 0 
770 1 1 -0.000836441 -0.0295989 0.00394375 0 0 0 -0.0982879 -0.0767931 0.031672 -0.159435 -9.59597e-05 -0.127857 13.1399 11.2506 22.8266 0.004 300 0 
434 1 1 0.0111526 -0.0299298 0.00390799 0 0 0 -0.0228076 -0.0532519 -0.0344211 0.203815 0.219376 0.146514 -10.0974 -1.78073 -4.11272 0.004 300 0 
103 1 1 0.0299129 -0.0273694 0.00389766 0 0 0 -0.043759 0.0213415 0.0842855 0.104021 0.563938 0.107415 14.8474 -2.42058 1.15633 0.004 300 0 
451 1 1 0.0379739 -0.0259983 0.00390473 0 0 0 0.0216026 0.0519393 0.0169318 0.0202765 0.0130442 0.00664894 -3.51194 0.351182 13.8293 0.004 300 0 
94 1 1 -0.0344338 -0.0200203 0.00379811 0 0 0 -0.0746086 0.0965275 0.0163722 0.0976497 0.00650217 -0.0387811 -24.3696 -25.1063 -27.0975 0.004 300 0 
442 1 1 -0.00064342 -0.0216719 0.00389222 0 0 0 -0.0269292 -0.0385685 -0.0658881 0.0120539 0.0890992 0.0743257 -3.41844 10.0939 3.92998 0.004 300 0 
259 1 1 0.00712498 -0.0230362 0.00383842 0 0 0 0.0362632 0.0253009 0.0398152 0.086353 -0.203823 0.121123 -18.968 5.15622 -3.90987 0.004 300 0 
512 1 1 0.0147383 -0.0208197 0.00392444 0 0 0 0.0204792 0.116003 0.087782 0.104435 0.0198726 0.101292 -4.31122 9.54943 -9.13049 0.004 300 0 
470 1 1 0.0227704 -0.0239129 0.00427304 0 0 0 0.157158 -0.0559019 -0.121308 0.170713 0.186217 -0.243526 -4.9799 0.183892 13.8255 0.004 300 0 
406 1 1 -0.0425894 -0.0156199 0.00390399 0 0 0 0.0333894 0.114974 -0.0189626 -0.0029883 -0.0237992 0.247145 10.1875 -11.9351 -29.1687 0.004 300 0 
40 1 1 -0.025567 -0.0197278 0.00468859 0 0 0 -0.120195 0.0459446 0.118333 0.101077 0.0906259 0.0699402 6.74126 -3.11677 -20.8082 0.004 300 0 
531 1 1 -0.0177782 -0.0183762 0.00388994 0 0 0 -0.083313 -0.144837 0.0797011 -0.0665194 -0.23357 -0.110341 0.448336 -0.39869 -11.2067 0.004 300 0 
229 1 1 0.0230158 -0.0159994 0.0039466 0 0 0 -0.0499971 -0.0153326 -0.0459967 0.0467608 -0.343373 -0.101916 7.9893 11.807 -7.20259 0.004 300 0 
734 1 1 0.0302618 -0.0193966 0.00390235 0 0 0 -0.034456 -0.160151 0.0272916 -0.0201005 -0.131028 -0.108331 6.75842 -10.3873 10.0226 0.004 300 0 
635 1 1 0.041862 -0.0191062 0.00386673 0 0 0 0.0353213 0.0117479 0.00217861 0.124476 -0.0957557 -0.00123204 -8.35498 -2.62957 -11.33 0.004 300 0 
224 1 1 -0.0243956 -0.0119888 0.00390059 0 0 0 0.0729061 0.00580218 0.0365005 -0.012471 0.187407 -0.266138 -9.02935 17.5247 -0.515857 0.004 300 0 
353 1 1 -0.0166843 -0.01061 0.00379862 0 0 0 0.0596563 -0.144724 0.0173708 0.0168456 0.181887 0.110191 1.2767 6.59107 -16.817 0.004 300 0 
751 1 1 -0.0090536 -0.0126235 0.00396272 0 0 0 0.0690098 -0.0352339 0.0381287 -0.0304515 -0.0601477 -0.223097 14.0567 1.92081 10.4153 0.004 300 0 
128 1 1 0.00721957 -0.0122483 0.00394272 0 0 0 0.398069 0.023761 0.0248759 0.0422641 0.0873848 -0.228169 -13.7269 6.29778 14.3811 0.004 300 0 
683 1 1 0.0166971 -0.011185 0.00384779 0 0 0 0.034983 0.156176 -0.084944 -0.0701646 0.0159037 0.535841 -11.7456 -9.96219 -28.8494 0.004 300 0 
791 1 1 0.036143 -0.0136731 0.0040873 0 0 0 -0.00192618 -0.0752992 0.0728565 -0.151536 0.138231 -0.0488373 10.4598 10.1577 4.02128 0.004 300 0 
10 1 1 0.0444767 -0.0115806 0.00389931 0 0 0 0.029699 -0.0257989 0.0258241 0.0070914 -0.0479952 -0.0112376 -16.6747 4.98925 11.9956 0.004 300 0 
354 1 1 -0.038612 -0.00553273 0.00394783 0 0 0 0.0236583 0.0360641 -0.00481988 -0.056866 -0.0927918 -0.164209 4.82904 1.79259 8.45497 0.004 300 0 
725 1 1 -0.0309892 -0.00757995 0.00383338 0 0 0 0.00228555 -0.0196808 0.0831139 0.125365 -0.0679117 0.321195 -10.5217 -2.54264 2.13885 0.004 300 0 
622 1 1 -0.00169665 -0.00976533 0.00378224 0 0 0 -0.0503573 -0.0109957 -0.0611333 -0.101603 -0.185199 -0.051168 -5.86544 6.6603 -2.32503 0.004 300 0 
390 1 1 0.0115295 -0.00493778 0.00402866 0 0 0 0.0298219 0.128326 -0.115965 0.0560603 -0.0515822 -0.0569901 -11.4164 -15.8264 2.65273 0.004 300 0 
68 1 1 0.0252837 -0.0084568 0.0038521 0 0 0 0.252442 -0.133086 -0.00889137 0.0429225 0.0336988 0.309715 15.7237 19.6674 -14.2218 0.004 300 0 
761 1 1 -0.0282903 -0.000123097 0.0037287 0 0 0 -0.0601491 -0.0435076 0.121241 0.096268 -0.108819 0.304581 3.26993 -21.406 11.0015 0.004 300 0 
293 1 1 -0.0212879 -0.00408122 0.00390932 0 0 0 0.0247204 0.00587065 0.0694775 -0.0800784 -0.0630607 0.165562 -0.234639 11.1978 -7.09107 0.004 300 0 
384 1 1 -0.0137333 -0.00161901 0.00378535 0 0 0 -0.0432857 -0.0935166 -0.0767646 -0.0223888 0.139022 0.301093 12.0355 10.9556 19.8633 0.004 300 0 
666 1 1 -0.00178791 -0.000936968 0.00377724 0 0 0 -0.0271453 0.00599697 -0.0588135 -0.0412093 0.076165 0.295238 5.8137 6.70748 -12.7923 0.004 300 0 
690 1 1 0.0322909 -0.00474746 0.00392389 0 0 0 0.074031 -0.00160705 0.0282308 0.0608209 0.0843027 -0.012628 5.64822 10.1553 17.8749 0.004 300 0 
262 1 1 0.0459548 -0.00376553 0.0039625 0 0 0 0.0451686 -0.0345255 -0.00898004 -0.221578 -0.0773128 0.0565057 3.07946 -0.257286 4.4109 0.004 300 0 
402 1 1 -0.045622 -0.00027195 0.00398878 0 0 0 0.012429 -0.0506664 0.0104796 -0.113686 0.0325636 -0.189154 10.7609 -4.87139 8.26418 0.004 300 0 
261 1 1 -0.0376474 0.00238183 0.00418066 0 0 0 0.0497557 -0.00639568 -0.0442059 0.0114468 -0.0282052 -0.106353 8.71714 -3.60087 13.3384 0.004 300 0 
420 1 1 -0.0226447 0.00589495 0.00393433 0 0 0 -0.367157 0.339283 -0.0494836 -0.0664552 0.0474886 0.0564705 -6.34426 0.423338 -5.90056 0.004 300 0 
815 1 1 0.00603428 0.0016831 0.00388544 0 0 0 -0.0707979 0.0876228 -0.0424276 0.0682107 0.0907555 0.23747 2.3357 -2.36695 -13.2892 0.004 300 0 
306 1 1 0.0159825 0.00162519 0.00396857 0 0 0 0.0924339 0.220897 0.0167535 -0.113183 -0.0566708 0.0188573 -1.7295 0.077595 -22.9426 0.004 300 0 
178 1 1 0.0238071 0.00279061 0.00383421 0 0 0 0.0931446 -0.304309 -0.0664656 -0.348834 -0.389379 -0.0696671 6.12958 7.75208 17.8043 0.004 300 0 
862 1 1 0.0335083 0.00503909 0.00395388 0 0 0 0.0594151 -0.0518126 0.0239466 0.543889 -0.391836 -0.513205 -6.38432 -30.3165 -15.8001 0.004 300 0 
661 1 1 0.0416793 0.00286635 0.00376876 0 0 0 0.00300844 -0.0232698 0.00830211 -0.00349107 0.0438153 0.0682595 2.2085 4.60412 5.20952 0.004 300 0 
677 1 1 -0.0436686 0.00805896 0.00376887 0 0 0 -0.0290864 -0.0522241 -0.10099 0.236005 -0.198723 -0.043967 -8.42946 -14.7759 -2.71909 0.004 300 0 
654 1 1 -0.0144528 0.00627631 0.00378353 0 0 0 -0.0663106 0.0111657 -0.00163776 -0.0209756 -0.126662 0.323572 -15.8905 -20.8549 2.30428 0.004 300 0 
145 1 1 -0.00403663 0.00687908 0.00379987 0 0 0 -0.108418 0.172894 0.0359592 0.0326936 -0.0227835 -0.0500338 -14.0947 -9.08524 2.54715 0.004 300 0 
234 1 1 0.003584 0.00924903 0.00393665 0 0 0 -0.129522 0.0212958 0.0126044 -0.187564 -0.209797 -0.104047 -38.9638 13.3843 10.0626 0.004 300 0 
160 1 1 0.0133401 0.00913419 0.00386134 0 0 0 0.0632303 0.0818127 0.0406062 -0.119154 0.176907 -0.0293871 -20.2464 4.7835 -33.2527 0.004 300 0 
613 1 1 -0.0361927 0.0108846 0.00393154 0 0 0 -0.0516329 0.132342 -0.0797591 -0.175822 -0.150599 -0.400751 12.8501 -11.5252 3.09946 0.004 300 0 
265 1 1 -0.0278216 0.012047 0.00383111 0 0 0 -0.0325732 0.126179 0.0194298 -0.101752 -0.0849012 0.132326 -0.679651 -8.31135 11.2489 0.004 300 0 
392 1 1 -0.00231124 0.0146005 0.00400674 0 0 0 -0.0134462 0.0122844 0.0263183 0.0961316 0.254886 -0.0634107 1.56944 -12.8085 7.9676 0.004 300 0 
484 1 1 0.0210808 0.0105362 0.00397181 0 0 0 0.0780051 -0.0934192 0.0777425 0.193034 -0.0428799 -0.137224 -6.49984 20.6151 3.65356 0.004 300 0 
743 1 1 0.0285536 0.0131396 0.00389781 0 0 0 0.197491 -0.0594836 -0.0409647 -0.00152532 0.243729 -0.0158287 6.80532 0.354203 -30.4824 0.004 300 0 
514 1 1 0.0376477 0.0117989 0.00390233 0 0 0 -0.125765 -0.0153971 0.129435 0.0100928 0.163676 -0.235228 12.9855 1.34698 -2.49142 0.004 300 0 
809 1 1 -0.0429049 0.0169667 0.00402285 0 0 0 0.0278695 0.112256 -0.0814771 0.468002 0.0805056 -0.29544 23.1741 -6.46185 15.743 0.004 300 0 
773 1 1 -0.0326308 0.0183913 0.00398606 0 0 0 -0.119084 0.0368275 0.000207055 -0.0341525 -0.00650203 -0.0108772 17.2744 -11.9529 6.76458 0.004 300 0 
530 1 1 -0.0171371 0.0196059 0.00399289 0 0 0 -0.0353617 0.0864219 -0.0111774 -0.23402 -0.190711 -0.344467 4.13043 -1.58557 4.79331 0.004 300 0 
227 1 1 -0.0093042 0.0199274 0.00380696 0 0 0 0.0272323 0.250839 -0.0264675 0.00111982 -0.231021 -0.00341288 2.15852 0.440224 4.68435 0.004 300 0 
792 1 1 0.00370377 0.0197773 0.00401285 0 0 0 -0.216478 0.348271 -0.00777845 0.0590068 0.0458683 -0.0212008 -20.5006 14.5402 4.96435 0.004 300 0 
34 1 1 0.0154533 0.0168292 0.00411431 0 0 0 0.241968 0.0169069 0.0139484 0.00353529 0.0151891 -0.0210253 -4.61561 9.24553 13.4034 0.004 300 0 
206 1 1 0.023065 0.0194149 0.0039835 0 0 0 0.14421 0.0336054 0.00555194 -0.000665721 -0.000404231 -0.00546238 4.83213 14.3044 6.27525 0.004 300 0 
104 1 1 0.0339664 0.0188979 0.00408329 0 0 0 0.256211 -0.0721717 -0.210844 0.112494 0.0105533 -0.142197 -15.6332 -4.64655 29.647 0.004 300 0 
718 1 1 0.0421599 0.0183639 0.00461785 0 0 0 -0.131788 0.11548 -0.0749225 -0.00752592 -0.00570779 -0.0217292 3.54409 -0.445533 -9.39566 0.004 300 0 
101 1 1 -0.0389581 0.0240853 0.00398736 0 0 0 0.0851879 -0.0595149 0.0160034 -0.000288148 0.000101967 -0.014926 2.89877 -12.5899 29.8291 0.004 300 0 
331 1 1 -0.0233863 0.0244948 0.00377526 0 0 0 -0.125338 0.143294 -0.0405349 0.199089 0.183859 -0.349664 -24.0997 -16.1766 12.362 0.004 300 0 
348 1 1 -0.00329799 0.0251043 0.00407215 0 0 0 -0.09673 0.346416 0.0181032 0.110836 0.0768123 -0.0187408 -21.8687 -24.2392 2.75058 0.004 300 0 
786 1 1 0.010828 0.0234886 0.00384584 0 0 0 0.0274069 -0.0315562 0.0656518 -0.0424731 -0.17369 0.0150865 2.54362 5.39438 20.8763 0.004 300 0 
863 1 1 0.0384549 0.0254092 0.00394027 0 0 0 -0.0682489 0.213097 -0.0105376 0.021114 -0.0856399 -0.0798032 3.89464 -2.65748 1.30355 0.004 300 0 
246 1 1 -0.0310351 0.0261915 0.00394819 0 0 0 -0.160688 0.0312056 0.0205462 -0.208247 0.0136682 -0.236053 8.38951 -0.0331265 -0.306953 0.004 300 0 
846 1 1 -0.0161923 0.0275265 0.00420222 0 0 0 -0.0469722 -0.0940158 0.0451955 0.40982 0.0785321 0.0122196 -14.2262 -13.3421 -3.45544 0.004 300 0 
722 1 1 0.00406345 0.0282169 0.00403143 0 0 0 0.20728 0.0183189 0.0172104 -0.00743323 0.0113096 -0.0650725 -4.39064 3.61016 -30.8214 0.004 300 0 
316 1 1 0.0180287 0.0268242 0.0038908 0 0 0 -0.0236883 -0.0858996 0.0174294 -0.178731 -0.0059548 -0.197038 -21.6596 -4.2541 -14.2278 0.004 300 0 
495 1 1 0.0289939 0.0250158 0.00383323 0 0 0 0.160673 0.0111561 0.0295787 -0.492618 0.0162441 -0.0964472 -7.77446 18.4645 3.01298 0.004 300 0 
257 1 1 -0.0306573 0.0341335 0.00400735 0 0 0 0.061734 -0.0181219 -0.0259476 0.000284476 0.0755027 -0.0186565 6.29927 -10.8966 -5.94903 0.004 300 0 
511 1 1 -0.0089665 0.0310785 0.00393729 0 0 0 0.000255316 -0.00589564 0.023761 -0.0511987 -0.00322469 0.0345556 2.13999 1.43523 -35.1735 0.004 300 0 
2 1 1 0.0240357 0.0318754 0.00383064 0 0 0 -0.0434656 0.00557025 0.106675 0.238443 0.184409 0.181119 9.32871 -20.9096 29.5907 0.004 300 0 
254 1 1 0.031993 0.032645 0.00412031 0 0 0 0.0719117 0.189255 0.0296709 -0.0109082 -0.00115087 -0.0208967 -20.0264 -5.21472 5.5699 0.004 300 0 
325 1 1 -0.0241533 0.0390967 0.00388821 0 0 0 -0.0492468 0.323645 0.0138998 -0.0609296 0.255696 0.166378 -12.9113 -6.7376 -1.03815 0.004 300 0 
582 1 1 -0.0158891 0.0354066 0.00385511 0 0 0 -0.0437471 -0.0387455 0.0254038 0.0844263 -0.293199 0.106301 -4.55485 -8.08661 -26.356 0.004 300 0 
255 1 1 -0.00143315 0.0376661 0.00408511 0 0 0 -0.13158 0.122141 -0.0092547 0.0767 -0.01749 -0.0798231 -10.2921 0.0924317 16.0872 0.004 300 0 
887 1 1 0.00791487 0.0360813 0.00395504 0 0 0 0.0439925 -0.0223321 -0.0311304 -0.0203186 -0.0189545 0.0485879 -6.56095 8.1819 5.77451 0.004 300 0 
719 1 1 0.0165192 0.0351678 0.00384266 0 0 0 0.0894951 0.0138587 0.0444332 -0.0168628 0.222492 0.131781 3.15561 22.7194 -8.5598 0.004 300 0 
21 1 1 0.0233101 0.0397532 0.00392779 0 0 0 -0.0302249 -0.00993102 -0.0183827 0.0555814 -0.0497403 -0.0677606 -5.77517 -11.1288 -4.00799 0.004 300 0 
568 1 1 0.0162483 0.0431708 0.0037698 0 0 0 0.0639874 -0.00419647 -0.0347682 -0.0746934 0.140677 0.386289 -1.08244 6.86942 -15.9065 0.004 300 0 
387 1 1 -0.00951778 0.0450211 0.00396434 0 0 0 0.0261692 0.0588164 -0.0802788 -0.0115692 0.13697 -0.258883 -7.29363 -0.132571 -2.73112 0.004 300 0 
852 1 1 -0.000432403 0.0461258 0.00400269 0 0 0 -0.0724786 0.00839749 0.0298359 -0.0496194 -0.312681 -0.122484 2.92285 1.7446 -7.26838 0.004 300 0 
157 1 1 0.00843076 0.0453132 0.00387877 0 0 0 -0.161582 -0.00891494 0.00821689 0.0473365 0.159765 -0.125328 -3.00964 -7.1552 0.568805 0.004 300 0 
485 1 1 -0.0129077 -0.0423737 0.00428608 0 0 0 0.00893647 -0.29013 -0.284172 -0.0397846 -0.0407623 -0.195411 -10.4775 -6.27892 5.55167 0.004 300 0 
400 1 1 -0.0255666 -0.0382481 0.00942074 0 0 0 -0.251395 0.0126682 -0.154745 -0.0235806 -0.110431 0.0538614 5.85185 13.6262 -3.02307 0.004 300 0 
410 1 1 0.0115376 -0.0374297 0.00712321 0 0 0 0.0661486 -0.342041 -0.214699 0.358966 0.0780257 0.0276008 -0.97115 3.31405 -8.80949 0.004 300 0 
282 1 1 0.0233982 -0.0398339 0.00470864 0 0 0 0.0912892 0.123528 -0.0719853 -0.183943 0.357987 0.0305558 -8.66945 -2.77154 6.41631 0.004 300 0 
810 1 1 -0.00926164 -0.0339887 0.00977794 0 0 0 0.176212 -0.114358 -0.0426211 0.204742 -0.0786142 -0.202006 -13.6038 -25.6718 -25.571 0.004 300 0 
606 1 1 -0.000338172 -0.0355179 0.00941324 0 0 0 -0.0125315 -0.194411 -0.0894959 -0.166874 0.507617 -0.41753 0.599347 17.2194 9.32394 0.004 300 0 
183 1 1 0.0241951 -0.0318164 0.00830409 0 0 0 0.0775716 0.230855 -0.00874757 -0.013595 0.0660484 0.0438307 -1.9093 -1.5466 21.9213 0.004 300 0 
79 1 1 0.0346711 -0.0305023 0.00943742 0 0 0 -0.0962652 -0.134677 -0.143052 -0.55287 -0.122087 -0.101144 -8.99423 -0.813859 -6.5443 0.004 300 0 
29 1 1 -0.00533637 -0.0255087 0.00895982 0 0 0 -0.014287 0.11426 -0.0155716 -0.0394793 0.059968 0.24815 -19.5617 -1.53515 -0.262664 0.004 300 0 
248 1 1 0.00508851 -0.0288154 0.00913978 0 0 0 -0.00488769 0.0535403 0.0492882 0.126249 -0.00867328 -0.108546 1.02412 -3.15778 -1.14111 0.004 300 0 
814 1 1 0.0172411 -0.0276023 0.00837025 0 0 0 -0.0536383 0.131608 -0.0728399 -0.178852 -0.209314 0.110485 1.98 3.58837 1.45297 0.004 300 0 
769 1 1 -0.0406093 -0.0221283 0.0080689 0 0 0 -0.0395575 -0.0415009 0.043354 0.151181 0.0805667 -0.213356 -10.2932 -5.97672 28.4007 0.004 300 0 
777 1 1 0.0350308 -0.0208589 0.010065 0 0 0 0.0342572 -0.0692988 0.0037944 0.155895 -0.0455904 -0.527596 2.24958 5.47224 12.604 0.004 300 0 
19 1 1 -0.0102301 -0.0203152 0.00540342 0 0 0 -0.00904672 -0.0900689 -0.401521 0.0272313 0.047726 -0.175138 -22.8525 -1.88064 -9.03188 0.004 300 0 
291 1 1 -0.00332147 -0.0158466 0.00847177 0 0 0 0.0204435 -0.0215112 0.0497225 -0.145484 -0.0208004 0.129697 9.12745 -16.3422 12.2366 0.004 300 0 
891 1 1 0.00434316 -0.0176869 0.00890029 0 0 0 0.112861 0.109373 -0.0924721 0.059045 0.0942935 0.192154 -19.9635 -4.71572 -5.37819 0.004 300 0 
837 1 1 -0.0306955 -0.0144199 0.00784634 0 0 0 0.114415 -0.00615171 0.0994708 -0.114164 -0.210012 0.0039775 10.0486 -9.11507 -16.6818 0.004 300 0 
87 1 1 -0.0454011 -0.00765361 0.0074623 0 0 0 0.0669722 -0.195018 -0.0410052 -0.0316012 -0.00984943 0.0241895 -2.44651 0.0142228 -2.18976 0.004 300 0 
391 1 1 -0.00750873 -0.00546428 0.0070444 0 0 0 0.0299829 0.0567514 -0.105399 -0.028523 0.290039 -0.592408 7.62562 0.355225 9.31663 0.004 300 0 
378 1 1 0.00406729 -0.00544638 0.00665471 0 0 0 -0.0619024 0.0183191 -0.292059 -0.0264023 -0.0322982 -0.209447 -8.6713 37.87 16.5609 0.004 300 0 
411 1 1 0.0210671 -0.00334977 0.00812496 0 0 0 0.0324837 -0.211984 -0.243233 -0.199574 0.206635 0.123387 -7.88485 -45.3253 -2.00228 0.004 300 0 
338 1 1 0.0402772 -0.00218604 0.00960398 0 0 0 0.00911674 -0.0162286 -0.0044044 0.0173729 -0.00534317 -0.104003 -7.61607 -2.91365 10.3617 0.004 300 0 
16 1 1 -0.0182012 0.00226392 0.00935336 0 0 0 -0.304741 -0.143756 -0.100875 -0.0103061 -0.110901 -0.0568435 36.8864 3.26333 -0.623148 0.004 300 0 
704 1 1 -0.00855982 0.00227491 0.00821112 0 0 0 -0.0431114 0.0673249 -0.102359 -0.0731319 0.148104 0.325217 -13.2723 0.399838 7.88738 0.004 300 0 
31 1 1 0.0109026 0.00439187 0.00958958 0 0 0 -0.0570455 0.125961 -0.0400846 0.256614 0.14382 -0.0829882 24.917 -20.4711 -2.99329 0.004 300 0 
12 1 1 -0.031237 0.00599874 0.00755733 0 0 0 -0.172188 0.0367259 -0.140369 -0.00596408 0.328344 -0.243191 7.9305 -6.80501 2.93143 0.004 300 0 
712 1 1 0.0278498 0.0070758 0.00879448 0 0 0 -0.0374005 -0.0869519 -0.123893 0.0945444 0.013016 0.352688 -8.41608 7.50398 -4.14774 0.004 300 0 
210 1 1 0.0389447 0.00682761 0.00991757 0 0 0 0.264336 0.0471687 0.191871 -0.308959 0.254685 -0.148898 1.84582 45.8357 -23.1471 0.004 300 0 
624 1 1 0.045074 0.00977837 0.00557407 0 0 0 0.0634528 0.0219605 -0.211849 -0.119874 -0.0106818 0.0995785 2.87999 -11.057 1.88782 0.004 300 0 
273 1 1 -0.0180078 0.0123958 0.00731839 0 0 0 -0.149182 0.0608648 -0.363847 0.0191715 -0.0953982 -0.249744 2.0327 11.1254 -17.9595 0.004 300 0 
492 1 1 -0.00968218 0.0122161 0.0055716 0 0 0 -0.11155 0.218079 -0.323814 0.226872 -0.16348 -0.126285 1.86109 -12.3007 -4.7036 0.004 300 0 
493 1 1 0.00847994 0.0141558 0.00755564 0 0 0 -0.0265448 0.252738 -0.211582 0.276239 -0.0174035 -0.0395399 9.63815 -6.72557 1.02592 0.004 300 0 
632 1 1 -0.0372483 0.0157538 0.00992969 0 0 0 -0.102952 -0.0493825 0.071602 -0.201652 0.554922 -0.208632 -16.0233 -1.07046 6.01953 0.004 300 0 
726 1 1 -0.0239867 0.0177933 0.0075996 0 0 0 -0.163766 0.183584 -0.121548 -0.136224 -0.419024 0.212645 25.0261 10.6857 4.60683 0.004 300 0 
747 1 1 -0.0350414 0.0298903 0.0096535 0 0 0 0.0156917 -0.0177471 0.0793236 -0.0747674 0.0944694 0.131015 14.5809 -12.583 -2.31409 0.004 300 0 
230 1 1 -0.0103985 0.0253032 0.00943275 0 0 0 -0.0550267 -0.127839 0.130365 0.385051 -0.241898 0.0476042 -0.814797 9.66206 -5.28091 0.004 300 0 
366 1 1 0.0335359 0.0261371 0.0100648 0 0 0 -0.0785965 0.0873914 -0.0554905 0.181699 0.0185706 0.18168 9.11588 -11.5825 13.9602 0.004 300 0 
51 1 1 -0.0226464 0.0318611 0.00660583 0 0 0 -0.163964 0.341142 -0.170247 0.12865 -0.000164282 -0.178153 -3.12192 3.59404 -5.69044 0.004 300 0 
22 1 1 0.00371788 0.0335903 0.0105123 0 0 0 0.101281 -0.0391145 0.212086 -0.0792437 0.0959527 -0.09102 4.117 -4.63125 20.5292 0.004 300 0 
116 1 1 -0.00851347 0.0381225 0.00767581 0 0 0 0.0158837 0.079015 -0.00882302 0.0141715 -0.062376 0.0231953 9.9493 -3.61254 4.45381 0.004 300 0 
729 1 1 0.0115315 0.0406469 0.00935618 0 0 0 0.0354045 0.0695994 0.0882246 -0.0367391 -0.0557815 0.286553 -5.66429 10.1085 14.2218 0.004 300 0 
433 1 1 0.0276849 0.0367788 0.00974721 0 0 0 0.0684966 0.14347 -0.120261 -0.0267409 -0.0353851 -0.00943114 1.63058 2.23272 3.75322 0.004 300 0 
595 1 1 -0.0170711 0.04296 0.00526232 0 0 0 0.0274171 0.0858252 -0.0181882 -0.0399024 -0.309292 -0.265536 2.4899 16.3583 2.45986 0.004 300 0 
151 1 1 0.00372204 0.041441 0.00887467 0 0 0 -0.0540445 0.0198394 -0.137718 0.031007 0.010151 0.0715983 -7.73689 -3.44795 3.18653 0.004 300 0 
205 1 1 0.00145987 -0.0460996 0.0101632 0 0 0 0.0295098 0.000859628 -0.0427766 -0.0378646 -0.205114 0.17198 -4.73887 -12.4005 0.857812 0.004 300 0 
836 1 1 0.0091651 -0.0450487 0.01165 0 0 0 -0.0122926 0.0398243 -0.0686212 -0.205854 -0.388583 0.417504 -18.7826 13.6763 -20.4174 0.004 300 0 
311 1 1 -0.00512438 -0.0414487 0.0106607 0 0 0 0.0536194 -0.10206 -0.182961 -0.0567151 -0.326402 0.239381 -6.65592 -33.0251 -37.0322 0.004 300 0 
447 1 1 0.0167067 -0.0429088 0.0116837 0 0 0 0.0191519 -0.0206494 -0.178914 0.440177 -0.0646228 0.37205 -4.29327 6.97806 7.19645 0.004 300 0 
486 1 1 -0.0144435 -0.0395529 0.0114732 0 0 0 -0.244766 -0.0835358 -0.297306 -0.321553 0.089731 0.0103328 26.4028 -10.3385 -10.2501 0.004 300 0 
110 1 1 0.0237781 -0.0395527 0.0127656 0 0 0 -0.0778953 0.0222363 -0.0851522 0.0842071 0.147789 -0.0082591 -26.7007 -3.62833 5.69656 0.004 300 0 
188 1 1 -0.0177424 -0.032235 0.0110563 0 0 0 0.318569 0.183592 -0.0273098 0.149392 -0.073589 -0.00280487 18.85 -12.9436 -9.1197 0.004 300 0 
100 1 1 0.0116767 -0.0302422 0.0136941 0 0 0 0.0410968 0.111445 -0.157111 -0.476098 -0.0287649 -0.202184 24.2309 16.6334 9.77046 0.004 300 0 
556 1 1 0.0176078 -0.0348466 0.0115587 0 0 0 -0.0295381 0.0594101 -0.169875 0.24722 -0.181263 0.617269 -24.3612 -8.08346 -27.4704 0.004 300 0 
32 1 1 0.0299239 -0.0348123 0.0141932 0 0 0 -0.0845513 -0.0146222 0.0586613 0.138701 -0.243521 -0.342071 28.8684 -32.8428 -0.574727 0.004 300 0 
724 1 1 -0.0341555 -0.0312189 0.0111297 0 0 0 0.0497685 -0.139571 -0.0665232 0.878296 0.883576 -0.0164544 -33.6212 -10.1308 2.56195 0.004 300 0 
415 1 1 -0.0249564 -0.0291213 0.0102039 0 0 0 0.0741128 -0.310508 -0.040572 -0.0627763 0.152774 0.548477 21.6713 -11.8618 26.9003 0.004 300 0 
446 1 1 -0.0111704 -0.0277063 0.0138663 0 0 0 0.0559519 -0.0730431 -0.24834 -0.087681 0.324885 0.43784 -11.1269 -13.4475 6.42281 0.004 300 0 
24 1 1 0.0288098 -0.0256949 0.0116332 0 0 0 0.205639 0.2411 0.165007 0.131559 -0.254423 0.0289011 37.6118 -16.0855 -32.2613 0.004 300 0 
266 1 1 -0.0308714 -0.0224983 0.010306 0 0 0 -0.218366 -0.128735 0.110065 0.0794491 0.0252324 0.0735445 45.5629 16.2836 -12.1146 0.004 300 0 
487 1 1 -0.0236205 -0.0210001 0.0131408 0 0 0 0.00267312 0.132642 -0.347695 -0.136724 0.0879056 0.0825277 -11.8585 -15.6934 19.5694 0.004 300 0 
544 1 1 -0.0165757 -0.0231509 0.0103858 0 0 0 0.184646 0.166179 -0.265124 0.25247 0.243649 -0.0897569 13.592 -6.21152 -15.7815 0.004 300 0 
655 1 1 0.0017024 -0.0233164 0.0137787 0 0 0 -0.138528 -0.0785217 -0.209976 -0.218497 -0.41739 -0.809515 2.43592 1.05703 -1.95314 0.004 300 0 
243 1 1 0.0110215 -0.023028 0.0106874 0 0 0 0.0718006 0.216285 0.108985 0.071099 0.114323 -0.177143 1.00216 -11.8712 -7.79125 0.004 300 0 
356 1 1 -0.036648 -0.0175932 0.0129737 0 0 0 0.00563651 0.235906 -0.23479 0.312953 -0.171655 0.315865 23.4456 3.06398 -14.5745 0.004 300 0 
445 1 1 -0.0165115 -0.0149347 0.0108384 0 0 0 -0.059163 0.150166 -0.105753 0.106776 -0.159196 -0.187803 -22.6403 10.9389 6.25286 0.004 300 0 
739 1 1 -0.0086569 -0.0194204 0.0130609 0 0 0 -0.249693 -0.278564 -0.321605 0.180732 -0.160702 -0.0154747 -6.4511 -26.38 -17.1273 0.004 300 0 
870 1 1 0.0139275 -0.0156296 0.0100148 0 0 0 -0.0736842 0.161391 -0.211742 -0.05173 0.037858 -0.301644 13.8734 5.07499 17.7192 0.004 300 0 
309 1 1 0.0238503 -0.0196574 0.011101 0 0 0 -0.0354701 -0.0765648 -0.0710076 -0.156882 0.392551 -0.13392 -13.365 13.2989 3.09544 0.004 300 0 
418 1 1 0.0423914 -0.0182227 0.0116432 0 0 0 0.0341616 -0.0616875 -0.0460141 0.10556 -0.236381 -0.0312346 17.3376 4.22728 1.45949 0.004 300 0 
673 1 1 -0.0438064 -0.0145838 0.0117997 0 0 0 -0.134304 0.0581136 -0.127281 0.375791 0.254363 -0.0797462 -1.98688 12.9928 8.81757 0.004 300 0 
388 1 1 -0.0332239 -0.0106419 0.014212 0 0 0 -0.214363 -0.0359108 -0.0867702 0.649274 0.667336 -0.0320186 -1.11796 -27.2813 18.1654 0.004 300 0 
437 1 1 -0.0221129 -0.00917962 0.0108889 0 0 0 0.044266 0.140586 -0.0554859 -0.110723 -0.204401 -0.1194 -12.1302 -9.9546 34.7062 0.004 300 0 
775 1 1 -0.0091865 -0.0116075 0.0118558 0 0 0 0.280246 -0.0130326 -0.337686 -0.0884751 0.0684094 -0.623777 3.69353 -33.5679 -16.8903 0.004 300 0 
783 1 1 0.00763695 -0.0104597 0.0116171 0 0 0 -0.0384919 0.272624 0.0770482 -0.0500342 -0.331641 0.222059 -12.5054 -12.6215 11.9916 0.004 300 0 
332 1 1 0.0217854 -0.0115396 0.0103188 0 0 0 -0.0471471 -0.0397039 -0.00978318 0.0794413 -0.0224703 0.0614936 -6.72905 -21.6632 -5.43521 0.004 300 0 
374 1 1 0.02954 -0.0138537 0.00941564 0 0 0 0.0136701 -0.0942945 -0.00269678 -0.0358366 0.202543 0.214761 -14.1056 19.0223 -4.06696 0.004 300 0 
840 1 1 0.0441557 -0.00987985 0.0115655 0 0 0 -0.225996 0.243424 0.139025 -0.00194299 0.0438145 0.21881 -9.37997 -38.0863 -6.59266 0.004 300 0 
482 1 1 -0.0146876 -0.00633619 0.00993685 0 0 0 0.0967085 -0.0124099 0.0027787 -0.305984 0.325265 0.156407 -7.92606 11.5779 6.58418 0.004 300 0 
73 1 1 -0.00196561 -0.00855571 0.0115147 0 0 0 -0.0606579 0.12612 -0.0321283 0.804912 -0.115411 0.459477 -8.99294 -11.4174 -2.13536 0.004 300 0 
194 1 1 0.0149882 -0.00753241 0.0111469 0 0 0 0.0775347 -0.0522169 -0.0198065 -0.0628924 -0.105251 -0.0835694 11.2075 -1.701 -6.29422 0.004 300 0 
706 1 1 0.0277698 -0.00629554 0.0111641 0 0 0 0.0303152 0.00944142 -0.00546949 0.0035746 -0.221148 -0.0698621 -6.55397 10.227 19.6337 0.004 300 0 
589 1 1 0.0355261 -0.00848726 0.0101141 0 0 0 -0.00870076 -0.0742254 -0.0043622 -0.107808 0.0260456 -0.0859456 2.72395 -17.6174 2.54095 0.004 300 0 
717 1 1 -0.0410138 -0.00152086 0.0103355 0 0 0 -0.183002 -0.111951 -0.372468 -0.201617 0.160843 -0.11756 18.317 -17.7126 -20.8253 0.004 300 0 
615 1 1 -0.0333862 -0.00360989 0.0102676 0 0 0 -0.157057 -0.116909 -0.0572512 0.171839 0.0422133 -0.00599871 40.3081 18.33 -6.77226 0.004 300 0 
370 1 1 -0.0254735 -0.00207641 0.0107366 0 0 0 -0.0853742 0.000294638 0.175852 -0.0453082 0.0203991 0.289077 8.51031 -21.6482 21.5506 0.004 300 0 
875 1 1 -0.00906178 -0.00268238 0.0143473 0 0 0 0.0576762 0.0653141 -0.0198174 -0.149801 -0.133272 0.167495 1.95037 6.67741 4.35608 0.004 300 0 
735 1 1 -0.00190638 -0.00073255 0.0115654 0 0 0 0.020687 0.0294587 -0.0146502 -0.0830991 0.174063 0.207562 -2.49144 8.39759 -7.56228 0.004 300 0 
90 1 1 0.00876123 -0.00265157 0.012115 0 0 0 0.080453 0.127917 -0.315764 0.123048 -0.0478833 0.201349 -14.2173 -11.2236 -2.83757 0.004 300 0 
172 1 1 0.0161771 -0.000110839 0.0135292 0 0 0 0.076859 0.0854862 -0.302464 -0.332136 0.129121 -0.596137 -24.3112 21.7069 -2.9889 0.004 300 0 
476 1 1 -0.0460149 0.00456015 0.0103618 0 0 0 -0.0657045 -0.0613256 0.0409146 0.421712 -0.168286 0.146124 10.9421 5.78813 -9.42727 0.004 300 0 
15 1 1 0.0250894 0.000720901 0.0136885 0 0 0 -0.154201 0.027251 -0.0278283 -0.120666 -0.102005 -0.252516 -5.1942 6.44104 17.4071 0.004 300 0 
342 1 1 0.0323097 0.000171239 0.0101795 0 0 0 -0.132439 -0.0948841 0.0888931 0.0220189 0.480621 -0.522167 37.4988 -2.41446 22.4903 0.004 300 0 
303 1 1 0.0459509 0.00337251 0.0103839 0 0 0 0.0338545 0.0466067 0.0302652 0.389918 -0.249487 0.171725 -1.3831 3.0273 1.48987 0.004 300 0 
523 1 1 -0.0384096 0.00650069 0.0109034 0 0 0 -0.125323 -0.0908644 0.0786584 0.142479 0.0944272 0.0542549 -15.3149 -13.5723 21.8059 0.004 300 0 
292 1 1 -0.0130365 0.00789984 0.0118417 0 0 0 -0.158281 -0.0186623 -0.208285 -0.156902 -0.109129 -0.058019 8.5828 -23.5264 2.6562 0.004 300 0 
454 1 1 -0.000237003 0.00691007 0.0106132 0 0 0 -0.0127944 -0.0700158 0.0276605 -0.00315004 0.147118 0.101477 7.59995 6.66175 16.6969 0.004 300 0 
393 1 1 0.00650588 0.00943237 0.0137141 0 0 0 0.0305938 0.346835 -0.188811 -0.154998 0.326565 0.234259 -17.7151 -8.26451 -4.04995 0.004 300 0 
135 1 1 0.0204186 0.00657589 0.0109575 0 0 0 -0.0524747 -0.0462529 -0.10553 -0.53714 -0.184175 -0.0166042 16.9779 -5.53092 -4.8241 0.004 300 0 
651 1 1 -0.0444488 0.0123237 0.010147 0 0 0 -0.0315658 0.176216 -0.0689087 0.0666022 0.0994065 0.665606 -21.514 -3.17019 -15.3896 0.004 300 0 
636 1 1 -0.0247737 0.0098872 0.0107951 0 0 0 0.00871188 0.00027164 0.0370647 0.0488378 0.0299979 -0.00622796 -3.22638 3.18844 3.64902 0.004 300 0 
43 1 1 -0.0066609 0.0124329 0.0129619 0 0 0 -0.198385 -0.0385323 -0.188454 -0.0119494 -0.0459336 -0.23927 6.43594 -4.00931 -5.68565 0.004 300 0 
161 1 1 0.0142423 0.0108197 0.0133612 0 0 0 -0.0548528 0.183529 -0.0673405 -0.14005 0.162864 -0.174995 16.2537 -2.65039 -20.2727 0.004 300 0 
460 1 1 0.0272522 0.0131503 0.0135956 0 0 0 0.0870822 0.207727 -0.0515025 0.149094 -0.000909638 0.751238 -5.07049 7.52134 5.82311 0.004 300 0 
191 1 1 0.0343058 0.014393 0.0105445 0 0 0 0.1449 0.222207 0.12532 0.118244 -0.142523 -0.533176 -24.86 17.0191 -21.5285 0.004 300 0 