ITEM: TIMESTEP
4800
ITEM: NUMBER OF ATOMS
891
ITEM: BOX BOUNDS mm mm mm
-0.05 0.05
-0.05 0.05
0 0.15
ITEM: ATOMS id type type x y z ix iy iz vx vy vz fx fy fz omegax omegay omegaz radius f_Temp[0] f_heatFlux[0] 
199 1 1 -0.00356992 -0.0459762 0.00385576 0 0 0 -0.0302653 0.0215181 0.0127204 -0.0305425 -0.0159465 -0.00117496 4.91096 -3.18337 6.00388 0.004 300 0 
873 1 1 -0.019918 -0.0417228 0.00388112 0 0 0 -0.0335957 0.0199191 -0.00804062 0.0198213 0.019976 0.0684098 -0.338571 -1.91864 3.8027 0.004 300 0 
485 1 1 -0.0124564 -0.0443661 0.00395237 0 0 0 -0.0606992 0.00537636 -0.00720083 -0.0114269 -0.00886119 -0.0435721 0.246584 -4.80453 -0.293957 0.004 300 0 
850 1 1 0.00385943 -0.0434544 0.0039167 0 0 0 -0.00480257 -0.00642916 -0.0128873 -0.0484966 -0.00241064 0.0337403 -1.41016 0.786115 -3.30879 0.004 300 0 
186 1 1 0.0115621 -0.0446449 0.00394931 0 0 0 0.00747243 -0.0032123 0.00968073 0.00863486 0.0174209 0.00648915 3.04872 -8.02155 3.80406 0.004 300 0 
560 1 1 0.0189389 -0.0420444 0.00390613 0 0 0 0.0200969 0.00972543 0.0120115 -0.011674 0.0812865 -0.00872361 0.997174 4.63957 -3.8898 0.004 300 0 
682 1 1 -0.0297929 -0.0352783 0.00396579 0 0 0 0.0115726 0.0127473 -0.000417361 0.0465942 -0.00695607 -0.0342314 6.77442 7.19729 4.61088 0.004 300 0 
102 1 1 -0.0143554 -0.0362026 0.00385078 0 0 0 -0.0254512 0.018204 0.0147465 -0.000301316 0.0537339 -0.0139153 2.55285 -5.06522 -4.67912 0.004 300 0 
88 1 1 -0.00692241 -0.0387291 0.00388809 0 0 0 -0.051002 -0.000546084 0.0161572 0.0529631 -0.011979 -0.034195 4.6494 1.53113 -0.475334 0.004 300 0 
282 1 1 0.0257131 -0.0381843 0.00387848 0 0 0 0.0355316 0.0192732 0.0260231 0.0381384 0.0061832 0.0269451 -2.35492 0.0499365 5.81583 0.004 300 0 
251 1 1 -0.0220334 -0.0342042 0.00391471 0 0 0 -0.00999577 0.0185605 0.00332465 0.0124556 -0.00537961 0.00987843 -1.93888 -5.40592 -5.41441 0.004 300 0 
770 1 1 -0.00187188 -0.0323185 0.00403209 0 0 0 -0.0198083 -0.076459 -0.104355 -0.0194954 0.00647839 -0.092713 5.18382 -4.52301 6.98518 0.004 300 0 
776 1 1 0.00533741 -0.0356304 0.00396658 0 0 0 0.020848 0.00727198 0.0235346 -0.0857269 0.00125298 -0.0184656 -1.82871 4.31123 1.12325 0.004 300 0 
883 1 1 0.01933 -0.0323805 0.00381249 0 0 0 -0.0454118 0.00791196 0.00705299 0.0979324 0.0787424 0.0603719 -10.9703 -3.40995 -1.71865 0.004 300 0 
838 1 1 0.0318551 -0.0333806 0.00395746 0 0 0 0.0321115 0.0431708 0.0409235 0.0724847 -0.0191713 -0.0123269 9.47041 -2.20565 0.562912 0.004 300 0 
617 1 1 -0.0376088 -0.0266405 0.00390251 0 0 0 -0.000925756 -0.00481751 0.010261 0.0639966 0.0238524 -0.0102342 -0.566709 -2.76175 3.80973 0.004 300 0 
824 1 1 -0.0297305 -0.0274389 0.00391197 0 0 0 0.0102118 0.0167494 0.006149 0.0809129 -0.000964737 -0.0350403 -4.10047 2.48635 -3.82991 0.004 300 0 
571 1 1 -0.0218512 -0.0263971 0.00386822 0 0 0 0.0122919 0.00293509 0.0172434 0.0150614 -0.0400781 0.0856248 1.7068 -0.139549 -2.78751 0.004 300 0 
861 1 1 -0.00942039 -0.0299916 0.00397478 0 0 0 0.00572226 0.0173815 0.00516769 -0.0282531 0.030591 -0.0500253 3.69439 3.22032 -6.08296 0.004 300 0 
434 1 1 0.0121175 -0.029149 0.00396951 0 0 0 -0.0279792 0.0252982 -0.00455856 -0.0895977 -0.0224415 0.0270352 -1.91916 7.29198 11.2524 0.004 300 0 
103 1 1 0.031142 -0.0256385 0.00394538 0 0 0 0.00121297 0.0551484 0.021633 -0.00452991 -0.00010447 0.00990225 -11.9773 1.83434 2.39498 0.004 300 0 
451 1 1 0.0389562 -0.0247181 0.0038831 0 0 0 0.011277 -0.0109763 -0.0162364 -0.0338865 0.0191368 0.0211244 -7.16247 0.178916 -0.227553 0.004 300 0 
40 1 1 -0.0266597 -0.0202821 0.00375183 0 0 0 0.0335143 0.0129114 0.0285794 0.0888721 -0.00664756 -0.0478212 6.59047 -1.80652 5.72932 0.004 300 0 
19 1 1 -0.00867644 -0.0217973 0.00379568 0 0 0 -0.0332163 0.0743102 0.0269748 0.0413469 -0.0762491 0.018344 1.55213 -1.77708 12.031 0.004 300 0 
442 1 1 0.000206651 -0.0223587 0.00379174 0 0 0 -0.070158 0.0814585 0.00462752 -0.0988163 -0.178602 -0.150139 -21.6615 -6.44798 -4.1215 0.004 300 0 
259 1 1 0.00804625 -0.0223762 0.00378127 0 0 0 -0.0777424 0.00519491 0.0514094 -0.0567196 0.0425006 0.0450989 -1.18503 -8.19858 -15.4457 0.004 300 0 
512 1 1 0.0158045 -0.0217488 0.00388955 0 0 0 -0.0465985 -0.0158018 -0.0557357 0.109903 -0.131933 0.252096 3.19722 -6.78885 11.5223 0.004 300 0 
470 1 1 0.0233971 -0.0239915 0.0038954 0 0 0 -0.0270478 0.0458317 0.0389764 -0.0236441 -0.112904 -0.0310411 -13.5545 -8.19939 9.52287 0.004 300 0 
94 1 1 -0.0343441 -0.0193887 0.00384129 0 0 0 0.0292865 -0.0296941 0.016356 0.0652846 0.00577243 -0.0839095 4.84823 2.49217 3.54928 0.004 300 0 
531 1 1 -0.015976 -0.0182241 0.00388448 0 0 0 -0.0314892 0.0262352 0.0285629 0.0503113 -0.0396735 -0.024831 4.42695 -4.59634 6.33377 0.004 300 0 
229 1 1 0.0214265 -0.0163016 0.0038436 0 0 0 -0.0695791 0.0536025 0.00572976 0.12379 0.0814293 0.0423091 -0.420738 4.11044 -9.10535 0.004 300 0 
734 1 1 0.029109 -0.0181203 0.0038554 0 0 0 -0.0638626 0.0655348 0.0167131 -0.0309467 0.0139589 0.0902593 3.42255 -5.6987 16.3493 0.004 300 0 
635 1 1 0.0425081 -0.01772 0.00399449 0 0 0 0.0114529 0.000842919 -0.0142113 -0.0525106 -0.0568567 -0.0236864 6.73689 -2.74811 2.71157 0.004 300 0 
406 1 1 -0.0391853 -0.0131227 0.00394066 0 0 0 0.054944 -0.0316336 -0.00335568 0.0533638 0.0333881 0.0360269 3.65729 -3.98527 2.52621 0.004 300 0 
224 1 1 -0.0224462 -0.01372 0.00390981 0 0 0 -0.0377575 0.0408794 -0.00307429 0.0384296 0.000239682 -0.00219134 -7.33016 0.794489 -5.23136 0.004 300 0 
353 1 1 -0.0158099 -0.00946439 0.0038857 0 0 0 -0.033243 0.0354291 0.0205459 0.159959 -0.0434233 0.0218506 -7.87263 -15.1699 6.67886 0.004 300 0 
751 1 1 -0.00933443 -0.0139346 0.00393942 0 0 0 -0.047127 0.0658172 -0.00889794 -0.0032607 -0.038287 -0.0224008 3.79314 6.68016 -6.3626 0.004 300 0 
622 1 1 -0.00193345 -0.0113092 0.00380811 0 0 0 -0.0620638 0.0576958 0.0206402 -0.0273626 0.0350318 0.0380902 -0.617679 -3.83892 6.89465 0.004 300 0 
128 1 1 0.0102184 -0.0111543 0.00386165 0 0 0 0.110225 0.0719015 0.00167951 0.0667066 0.0969698 0.0853914 6.31519 -0.708824 12.9589 0.004 300 0 
68 1 1 0.0279882 -0.0103575 0.00387318 0 0 0 -0.102914 0.0941731 0.0743373 -0.0741563 0.127219 -0.106911 -6.19357 -7.72083 -14.8977 0.004 300 0 
791 1 1 0.0354944 -0.0128968 0.00389355 0 0 0 -0.05943 -0.00757685 0.0360785 -0.00992137 -0.0414366 -0.0228648 2.97916 -15.7668 -16.8576 0.004 300 0 
10 1 1 0.0448944 -0.0102621 0.00394319 0 0 0 0.0142945 -0.0026028 -0.0128029 0.0576752 -0.0441699 0.069873 -5.84289 2.42495 3.39576 0.004 300 0 
354 1 1 -0.0383733 -0.00523134 0.00378144 0 0 0 0.081075 -0.0796047 -0.0131305 0.0660417 -0.0347616 0.111881 11.7061 4.44213 16.377 0.004 300 0 
725 1 1 -0.0306762 -0.00695779 0.00384203 0 0 0 0.144809 0.0133953 -0.00174497 -0.0161771 -0.0674612 0.0566828 2.5244 -11.9686 4.25558 0.004 300 0 
293 1 1 -0.0228559 -0.00585896 0.00388484 0 0 0 0.135545 0.0660833 0.0200109 -0.0855173 0.00997574 -0.0254436 1.77258 3.04258 5.34785 0.004 300 0 
391 1 1 -0.00864941 -0.00591429 0.00396401 0 0 0 0.0312976 -0.0557029 0.0306196 0.0217949 0.0678696 -0.0816677 -7.18093 -6.39333 14.8805 0.004 300 0 
683 1 1 0.0179712 -0.00916271 0.00392433 0 0 0 -0.158162 0.0772868 -0.0202708 -0.0215095 -0.0271588 0.0660439 -7.42535 0.438754 -3.0826 0.004 300 0 
690 1 1 0.0384876 -0.00561929 0.0038394 0 0 0 0.00805476 -0.0321342 0.0323988 -0.0329547 0.0457205 0.00161301 -6.31096 -2.26259 -1.62714 0.004 300 0 
402 1 1 -0.0462172 -0.000653114 0.00377014 0 0 0 0.0228223 -0.150086 -0.0410781 0.0483629 0.0749622 0.149967 23.2848 3.94114 -7.72812 0.004 300 0 
761 1 1 -0.029221 0.00073656 0.00382512 0 0 0 0.0581887 0.0269663 0.00503301 -0.00568301 -0.0499251 -0.0226304 -4.9564 -2.05062 8.68805 0.004 300 0 
384 1 1 -0.0153777 -0.00155112 0.00383855 0 0 0 0.0213869 0.00864159 0.00516832 -0.147257 -0.0578209 0.0500614 -5.10093 0.0552746 2.69317 0.004 300 0 
378 1 1 0.00246791 -0.0047658 0.00389966 0 0 0 -0.161027 0.132666 0.0411884 -0.0204513 -0.0100371 0.0197013 -12.0075 -0.995556 -0.0207122 0.004 300 0 
390 1 1 0.0120249 -0.00291952 0.00385894 0 0 0 -0.19138 0.149846 0.00274187 0.0485203 -0.000684011 0.108983 4.88784 -8.80181 -4.9836 0.004 300 0 
411 1 1 0.0236718 -0.00367359 0.00403363 0 0 0 -0.0555819 0.111476 0.052924 0.141274 -0.224054 -0.0252392 1.99956 -14.5701 -2.93388 0.004 300 0 
262 1 1 0.0460724 -0.00250787 0.00395703 0 0 0 0.000359407 -0.00569129 -0.00450589 0.0466742 0.0265699 0.0347466 5.04331 -0.361746 -5.64095 0.004 300 0 
261 1 1 -0.0395443 0.00336214 0.00383376 0 0 0 -0.0216342 -0.0182262 -0.00443968 -0.0303356 1.94164e-05 -0.0322848 6.8545 4.18474 19.7289 0.004 300 0 
666 1 1 -0.0037719 0.000473887 0.00398226 0 0 0 0.0147005 -0.00687612 0.0171818 -0.000623873 0.000189547 -0.00799847 -1.42661 -6.68287 -6.54503 0.004 300 0 
815 1 1 0.00488645 0.00270408 0.00388417 0 0 0 0.015077 0.11172 0.00864085 -0.0399158 -0.0622751 -0.0141021 7.82754 -1.4404 -33.8789 0.004 300 0 
306 1 1 0.0182275 0.00203273 0.00401583 0 0 0 -0.0399421 -0.0474351 0.0233771 -0.128943 0.163542 -0.0705625 0.183397 2.78096 -14.8822 0.004 300 0 
178 1 1 0.0259023 0.00392579 0.00382169 0 0 0 -0.056735 0.0905184 0.00737118 -0.0234079 0.0928565 -0.0521624 -18.2509 -11.276 0.71585 0.004 300 0 
661 1 1 0.0402484 0.00267471 0.00394263 0 0 0 -0.000566115 -0.0172934 -0.0145964 0.0514301 -0.025201 -0.0139676 -1.66903 -6.46558 6.06002 0.004 300 0 
677 1 1 -0.0450941 0.00913329 0.00388799 0 0 0 0.0375302 0.0597915 0.0144476 -0.0356976 -0.0801771 0.0899831 -7.31464 5.63279 -3.95421 0.004 300 0 
420 1 1 -0.0251988 0.00743766 0.00395328 0 0 0 0.0158433 0.00761922 0.00661518 -0.00821645 -0.0249419 -0.00316289 -1.90558 -3.68559 2.57053 0.004 300 0 
654 1 1 -0.0174624 0.00650339 0.00382809 0 0 0 0.0193171 0.12288 0.0300941 -0.0287019 -0.0539805 -0.000902531 -8.09913 2.74936 13.8284 0.004 300 0 
145 1 1 -0.00495076 0.00864929 0.00375497 0 0 0 0.00567209 -0.00912165 -0.00360665 0.0229648 0.00605824 0.0106203 1.77743 5.65623 6.59829 0.004 300 0 
862 1 1 0.0334069 0.00633677 0.00391937 0 0 0 -0.0281991 -0.0455658 -0.0209607 0.019109 -0.0340584 -0.0201422 4.68362 2.02498 3.91609 0.004 300 0 
624 1 1 0.0452361 0.00886412 0.00380857 0 0 0 -0.0100347 0.0243086 0.0134079 -0.043813 -0.0640632 0.0639957 1.06466 -0.194103 -0.561474 0.004 300 0 
613 1 1 -0.0379455 0.0134814 0.00375166 0 0 0 -0.0650039 -0.0448754 -0.0137317 0.0168169 0.00725325 -0.0473695 12.22 -17.7767 -7.20877 0.004 300 0 
265 1 1 -0.029037 0.0142379 0.00389124 0 0 0 0.0760889 0.0226623 -8.20894e-05 0.00895446 -0.0553153 0.00518838 1.0841 -9.15957 2.86529 0.004 300 0 
273 1 1 -0.0205606 0.0137878 0.0039945 0 0 0 -0.0813522 0.0509561 0.0160861 -0.0310686 -0.0353065 -0.0221774 0.396642 3.58449 -3.41585 0.004 300 0 
492 1 1 -0.0126091 0.0128549 0.00397421 0 0 0 -0.0434203 -0.0307045 0.0364289 0.0168106 -6.80266e-05 -0.0593809 -13.4168 -5.12077 -10.7027 0.004 300 0 
234 1 1 0.00671441 0.0105143 0.00383741 0 0 0 -0.00864593 -0.0292428 0.0492953 -0.00693143 -0.0582002 -0.0423574 5.38451 -4.95376 4.47684 0.004 300 0 
160 1 1 0.0150026 0.0116815 0.00385847 0 0 0 0.00259996 -0.0265212 0.00173995 -0.0469339 -0.0120546 0.0253101 2.96493 0.833812 18.8917 0.004 300 0 
484 1 1 0.0228099 0.0122277 0.00388001 0 0 0 -0.00482234 -0.0127648 0.0245708 0.0209348 -0.0330622 -0.00684894 -1.2435 -4.47911 -8.57018 0.004 300 0 
743 1 1 0.0304912 0.0136098 0.00396098 0 0 0 -0.0304962 -0.0477712 0.0020648 0.0606661 0.00158063 -0.0154159 -0.810748 6.39811 -3.07498 0.004 300 0 
514 1 1 0.038306 0.0126559 0.00388991 0 0 0 -0.02954 0.0105935 0.00168621 0.0290261 -0.0061731 0.00428031 -3.28111 -3.76293 6.97694 0.004 300 0 
809 1 1 -0.0411989 0.0206967 0.00390702 0 0 0 -0.0148241 -0.0299147 -0.00247049 -0.00553848 -0.0462285 -0.0116121 2.19751 -2.7019 -3.72633 0.004 300 0 
773 1 1 -0.03227 0.0212598 0.00375929 0 0 0 -0.10245 -0.0530017 -0.00162071 -0.0234283 -0.0290368 -0.0319218 13.5144 -18.6925 5.52372 0.004 300 0 
227 1 1 -0.00823415 0.0194873 0.00388998 0 0 0 0.0408377 -0.0296004 0.0177922 0.0258269 -0.0419772 0.003329 6.05937 5.43828 -1.30463 0.004 300 0 
392 1 1 5.71658e-05 0.0146638 0.00393253 0 0 0 -0.0164944 0.023131 0.00187442 -0.0650507 0.0139945 -0.0106271 -0.629807 -4.82802 -1.56169 0.004 300 0 
493 1 1 0.00994793 0.0176852 0.00389249 0 0 0 0.0105627 -0.015931 0.00711986 -0.0194352 -0.0421513 0.0321943 -5.94439 13.49 -16.8291 0.004 300 0 
34 1 1 0.0175596 0.0198565 0.00388478 0 0 0 0.0228316 -0.0582832 -0.00887802 -0.112502 -0.014162 0.0625658 3.71746 -8.50706 4.31721 0.004 300 0 
206 1 1 0.0255193 0.0197546 0.00392308 0 0 0 -0.111159 -0.0855863 -0.0178187 0.0710133 0.0273069 -0.0182311 0.649054 -1.56096 -5.07126 0.004 300 0 
104 1 1 0.0337633 0.0207088 0.00389311 0 0 0 -0.00384728 -0.0601779 -0.0106017 0.0558244 0.0321162 -0.0400792 1.4648 -2.93348 10.7682 0.004 300 0 
718 1 1 0.0415892 0.0198797 0.00399396 0 0 0 -0.00500639 0.0347558 0.00509499 0.0757542 -0.0566963 -0.0171395 -4.04017 -0.529943 -11.8793 0.004 300 0 
530 1 1 -0.0168262 0.0206632 0.00388506 0 0 0 0.0597304 -0.024494 0.00821479 0.0582247 -0.0301352 -0.0337579 2.04066 8.64868 -16.0892 0.004 300 0 
792 1 1 0.00330156 0.0218305 0.00392407 0 0 0 -0.0110266 -0.00861505 0.0565938 -0.0478776 0.0348215 -0.0373303 7.44667 -2.75221 3.04949 0.004 300 0 
101 1 1 -0.0371325 0.0274247 0.00393359 0 0 0 -0.0267707 -0.0364726 -0.0256087 -0.0797048 -0.00161729 -0.0717431 -2.62709 2.42733 -5.08801 0.004 300 0 
246 1 1 -0.0293678 0.0285413 0.00385077 0 0 0 0.0188336 -0.0871503 -0.00682318 -0.133279 0.054282 0.147847 -6.58928 -4.50011 14.8103 0.004 300 0 
331 1 1 -0.0218562 0.0266894 0.00393733 0 0 0 0.0854224 0.00698291 0.0138866 -0.0521322 0.000231223 0.0140849 -3.04282 -3.68921 3.71221 0.004 300 0 
846 1 1 -0.0142071 0.0280642 0.00390979 0 0 0 0.0997386 -0.0228696 0.0384406 0.0749929 -0.013328 0.000987174 0.733003 0.803929 2.44843 0.004 300 0 
348 1 1 -0.00290309 0.0266365 0.00390852 0 0 0 -0.0533243 -0.0754548 0.0191493 -0.0522591 0.0722163 -0.00985193 6.35356 2.10724 6.20916 0.004 300 0 
786 1 1 0.00843835 0.0277744 0.00384997 0 0 0 0.0351672 -0.0159757 0.0584714 -0.0563395 -0.0435433 -0.00254875 0.130392 12.5472 -5.07369 0.004 300 0 
316 1 1 0.0162418 0.0277104 0.00386579 0 0 0 0.0518435 -0.0452851 -0.0122987 -0.0217073 -0.0101395 0.0389495 2.37357 4.5417 -3.29889 0.004 300 0 
495 1 1 0.0288931 0.0268904 0.0038975 0 0 0 -0.0489987 -0.107448 0.0117709 0.0497039 -0.0289145 0.0119915 2.31647 2.12906 -7.63278 0.004 300 0 
863 1 1 0.0366394 0.0280641 0.00397227 0 0 0 -0.0278582 -0.035063 0.00423612 0.060649 -0.0468886 -0.0107611 -2.57139 -0.231921 2.41769 0.004 300 0 
511 1 1 -0.00800658 0.0327159 0.00377583 0 0 0 0.0661623 0.0272245 0.0191125 0.0612337 0.106062 -0.0419999 2.59443 6.61615 11.6209 0.004 300 0 
722 1 1 0.00225752 0.0326312 0.0039146 0 0 0 -0.0428025 -0.0620519 0.0237438 -0.0101745 0.013081 -0.00242184 0.983026 5.37875 -2.04861 0.004 300 0 
2 1 1 0.0229091 0.031887 0.00394738 0 0 0 0.0425829 0.0179999 0.0113293 0.0203298 0.0610277 -0.0242884 -1.73725 4.23394 -12.2056 0.004 300 0 
254 1 1 0.0302174 0.0348109 0.00397674 0 0 0 0.145525 -0.165011 0.00900604 0.0754136 -0.0582966 0.004489 -0.195929 -2.3575 -1.66198 0.004 300 0 
257 1 1 -0.028437 0.0362997 0.003912 0 0 0 -0.0477208 -0.066269 -0.00736675 -0.0473338 0.0507488 0.055253 6.94067 3.91264 4.13189 0.004 300 0 
582 1 1 -0.015291 0.0359057 0.00382533 0 0 0 0.0320846 -0.0267158 0.024144 -0.00637357 0.0271078 0.115405 4.7405 4.75121 4.1258 0.004 300 0 
255 1 1 -0.00257605 0.0388389 0.0039462 0 0 0 -0.0101015 0.0033495 0.00886241 0.00256567 0.000509226 -0.0571832 -1.75724 -0.17091 -4.67497 0.004 300 0 
887 1 1 0.00843207 0.0375512 0.00392105 0 0 0 -0.0182615 -0.0593503 -0.00228287 -0.0519515 -0.00994324 -0.000455757 -2.02586 4.33608 -1.03692 0.004 300 0 
719 1 1 0.0160305 0.0355858 0.00394449 0 0 0 0.0113269 -0.0281315 0.00433359 -0.0746165 -0.0286819 -0.00985279 0.877177 -7.36846 12.9323 0.004 300 0 
21 1 1 0.022794 0.039856 0.00388393 0 0 0 0.0546583 -0.0148062 -0.000895874 0.0104953 0.0241576 0.0149884 3.72302 1.17387 0.228168 0.004 300 0 
325 1 1 -0.0218619 0.0405658 0.00373625 0 0 0 -0.0396957 -0.0318549 0.0170923 -0.0602478 -0.0202749 0.308626 6.40498 -1.82645 -0.596928 0.004 300 0 
568 1 1 0.0157378 0.0433894 0.00390752 0 0 0 0.0527018 -0.0228036 0.00554819 0.0464972 -0.0096204 -0.00117663 0.161363 -0.993054 2.11803 0.004 300 0 
387 1 1 -0.00730686 0.0455256 0.00386485 0 0 0 -0.000178294 -0.000682899 0.0329924 0.0141985 0.0108795 -0.0427598 -0.449984 2.06296 2.64531 0.004 300 0 
852 1 1 0.000443464 0.0461238 0.00390102 0 0 0 0.0178698 -0.0105357 0.0132875 0.0170523 -0.00521652 0.00312374 2.54959 3.4125 -5.86456 0.004 300 0 
157 1 1 0.00820111 0.0454187 0.00386073 0 0 0 0.0355488 -0.033294 -0.00192882 0.00428975 -0.0187656 0.0461873 3.74542 0.663743 0.0438116 0.004 300 0 
400 1 1 -0.0240636 -0.0392143 0.0102573 0 0 0 -0.0265606 -0.00695581 -0.00853334 0.0163154 -0.0276004 -0.0684559 -3.47261 0.938269 -7.8688 0.004 300 0 
606 1 1 -0.000580948 -0.0388002 0.00842956 0 0 0 -0.0423451 -0.034928 0.015495 -0.0224301 0.0972868 0.0556014 5.60965 2.79917 -1.75161 0.004 300 0 
410 1 1 0.0130315 -0.0369434 0.00520987 0 0 0 0.000894442 -0.00129075 -0.000306173 -0.0589789 -0.011133 0.102055 -3.01084 6.50032 -2.06708 0.004 300 0 
724 1 1 -0.0340403 -0.0311954 0.00927203 0 0 0 0.0315735 -0.0114226 -0.0173497 0.0885094 -0.0881112 -0.109183 -4.67556 -6.87241 5.04303 0.004 300 0 
183 1 1 0.0256318 -0.0303809 0.00800557 0 0 0 -0.0291347 0.0135783 0.024595 0.0867878 0.0501585 0.035388 5.65141 -2.38929 -4.18075 0.004 300 0 
29 1 1 -0.00438243 -0.025222 0.00934403 0 0 0 -0.0129434 -0.0278664 -0.00933266 -0.0563818 -0.0242993 0.0201798 8.08815 -0.343798 7.8864 0.004 300 0 
248 1 1 0.00427478 -0.0283845 0.0071262 0 0 0 -0.146289 0.00657651 0.0200875 -0.0625277 -0.0244169 0.0348126 3.27443 -7.18019 4.74452 0.004 300 0 
814 1 1 0.0183628 -0.0267889 0.00941845 0 0 0 -0.0765129 0.0296576 0.0552785 0.0606701 -0.0942034 0.0421551 -4.11024 -17.6191 8.19093 0.004 300 0 
79 1 1 0.0356788 -0.0291567 0.00948843 0 0 0 0.0197612 0.073615 0.0585221 0.00988954 0.0214574 0.0165264 -11.4267 4.3483 -2.88188 0.004 300 0 
769 1 1 -0.0415723 -0.0202849 0.00633438 0 0 0 0.00116274 0.0204659 -0.0107767 0.0521793 -0.0406969 0.0452815 -3.37267 0.667745 -5.48128 0.004 300 0 
544 1 1 -0.0148965 -0.0252619 0.0071891 0 0 0 -0.00423677 -0.0169486 0.0280654 0.0451504 0.0176357 0.0657742 6.16026 -4.42034 0.860207 0.004 300 0 
291 1 1 -0.00383342 -0.0173947 0.00848369 0 0 0 -0.0877055 0.00474319 0.00405024 -0.0354186 0.0354152 0.00711447 -0.423293 -5.37665 4.8549 0.004 300 0 
891 1 1 0.00417966 -0.0158357 0.00561706 0 0 0 -0.0654538 0.0762011 0.0129441 0.0981707 0.0896742 0.171656 -1.88203 12.2353 -8.71488 0.004 300 0 
870 1 1 0.0149381 -0.0154195 0.00862492 0 0 0 -0.0207118 -0.0614896 0.0819464 0.0162288 0.00487738 0.037274 -9.51991 -10.5785 -9.2922 0.004 300 0 
777 1 1 0.0354622 -0.0192979 0.00842521 0 0 0 -0.0508747 -0.0509122 -0.000848713 -0.0660862 -0.00500822 0.176114 -1.20207 15.678 21.2089 0.004 300 0 
837 1 1 -0.0297167 -0.0139768 0.00720681 0 0 0 0.00307503 0.00578082 0.0347782 0.0548409 -0.0189317 0.021948 -6.35769 -10.4352 -2.37762 0.004 300 0 
87 1 1 -0.0454123 -0.00837847 0.00512169 0 0 0 0.0404086 -0.107137 -0.101404 0.0205092 -0.0969872 -0.100045 6.44666 0.322432 -15.8979 0.004 300 0 
615 1 1 -0.0350724 -0.000470092 0.00900049 0 0 0 0.00908038 -0.0199382 -0.0137784 -0.038132 0.0214258 0.0242702 -11.8543 -5.17387 6.98482 0.004 300 0 
90 1 1 0.00750199 -0.00175989 0.0102274 0 0 0 -0.0410507 0.0216269 0.106972 -0.0357016 0.113388 0.0819582 7.99637 3.33084 -2.74534 0.004 300 0 
342 1 1 0.0314529 -0.00204964 0.00398802 0 0 0 -0.0153518 0.0846809 0.124612 -0.171947 0.0491209 -0.408013 10.6822 1.77944 -2.53235 0.004 300 0 
16 1 1 -0.0219593 0.00107876 0.00737816 0 0 0 0.0483063 0.0488773 0.0400206 -0.272032 -0.022234 -0.192678 3.33792 0.975934 8.42529 0.004 300 0 
704 1 1 -0.0105669 0.00406561 0.00638438 0 0 0 -0.00713809 0.013205 0.0138196 0.0348491 -0.0317028 0.0459083 -3.41999 -2.44397 -14.9402 0.004 300 0 
303 1 1 0.0460282 0.00338325 0.00931278 0 0 0 -0.0166808 0.0222569 0.0290968 -0.00279712 0.00446658 0.0433094 -4.52954 3.15694 -4.52126 0.004 300 0 
12 1 1 -0.0330071 0.0075356 0.00488655 0 0 0 0.0135003 0.0183328 -0.0565022 -0.0137309 -0.0745556 -0.0714481 -6.88934 -7.85813 -2.7911 0.004 300 0 
454 1 1 0.00106451 0.00768826 0.00859129 0 0 0 -0.036308 -0.0171709 0.0846723 0.0580557 -0.0293292 -0.050447 -2.43988 -11.8425 -2.68366 0.004 300 0 
31 1 1 0.0116387 0.00530725 0.00693474 0 0 0 0.0512524 -0.0318779 0.0508146 -0.147257 -0.0505191 -0.00659785 -15.4601 -5.9711 -5.27571 0.004 300 0 
712 1 1 0.0285281 0.00847805 0.00967536 0 0 0 0.0371175 -0.0237274 0.0617875 -0.13795 0.0194457 -0.052292 -3.53384 -5.13686 -14.3594 0.004 300 0 
210 1 1 0.0394131 0.0078214 0.0100484 0 0 0 0.000739511 0.035976 0.0197417 0.0255242 -0.00806908 -0.0292973 -7.05875 5.2565 3.13424 0.004 300 0 
651 1 1 -0.0436431 0.0150833 0.0088937 0 0 0 -0.00250431 0.000140722 0.0379977 -0.028663 0.0884303 -0.0705829 5.19227 -2.87953 -6.84072 0.004 300 0 
43 1 1 -0.00687956 0.0135029 0.00957199 0 0 0 0.0281203 -0.0104633 0.0253042 -0.0253813 0.125301 -0.0905855 0.918969 -10.6686 -1.94135 0.004 300 0 
621 1 1 0.0439047 0.0143436 0.00926813 0 0 0 -0.00767208 0.0376012 -0.00749781 -0.0101714 -0.021228 0.0635626 -4.67036 -8.55776 -10.9889 0.004 300 0 
726 1 1 -0.0245544 0.0199666 0.00708209 0 0 0 0.0289519 0.0538238 0.0356475 0.0788939 -0.0725858 -0.285463 -3.45688 -4.09868 -8.17498 0.004 300 0 
143 1 1 0.0214889 0.0169368 0.0100846 0 0 0 -0.0481904 -0.0135534 0.0510624 -0.00348824 -0.0303058 0.00232931 0.110658 5.82245 8.37772 0.004 300 0 
320 1 1 -0.00234217 0.0200254 0.00917782 0 0 0 -0.0222652 -0.0462247 0.101714 0.0195724 -0.0608644 -0.00288335 12.1882 4.06274 -7.65769 0.004 300 0 
7 1 1 0.0123557 0.0231088 0.00899883 0 0 0 0.133992 -0.0639592 0.0480909 -0.0291593 0.00412676 0.0438602 18.6562 -0.369686 -4.65297 0.004 300 0 
83 1 1 0.0215288 0.0246758 0.00874187 0 0 0 -0.0126109 -0.0372274 0.0449049 -0.0305497 -0.029526 -0.00673439 -7.32552 -19.9154 -7.61551 0.004 300 0 
543 1 1 0.0391712 0.0244279 0.0106048 0 0 0 -0.00565216 0.0437406 0.0291698 -0.00765564 -0.0410326 -0.0336822 1.99207 -0.798348 0.388713 0.004 300 0 
230 1 1 -0.00874803 0.0254801 0.00903039 0 0 0 0.0277079 -0.0644008 0.122136 0.00458803 -0.0299795 0.0783602 -0.953628 4.96156 -12.1748 0.004 300 0 
51 1 1 -0.0218564 0.0337129 0.00765454 0 0 0 0.00683073 0.00273085 0.019368 0.000270617 -0.12886 0.0436278 2.94198 -11.2233 6.0278 0.004 300 0 
750 1 1 -0.00310307 0.0320857 0.00971253 0 0 0 0.0112082 -0.0801584 0.0676344 0.00274688 0.00301049 0.0448679 4.38341 -10.268 -3.63402 0.004 300 0 
116 1 1 -0.00927043 0.0391475 0.00805033 0 0 0 -0.00165434 0.00753859 0.0453457 -0.0268265 0.0600363 -0.0263102 0.824239 3.72273 10.7733 0.004 300 0 
595 1 1 -0.0148194 0.0437104 0.00481676 0 0 0 -0.0257294 -0.0239098 0.0183884 -0.00694293 0.0313723 0.0902007 -0.233316 -11.7655 0.389528 0.004 300 0 
205 1 1 9.58772e-05 -0.0461377 0.0110575 0 0 0 0.0149824 -0.0212646 0.0330317 0.0143999 0.00270182 -0.0980381 6.31035 8.95214 -0.863211 0.004 300 0 
836 1 1 0.00799487 -0.045353 0.0110516 0 0 0 -0.0239014 -0.0187439 0.0052709 0.0166123 -0.0110595 -0.0566017 -7.43669 14.069 2.81779 0.004 300 0 
486 1 1 -0.0161661 -0.0401282 0.0105799 0 0 0 -0.0199658 -0.0411823 0.0185458 -0.0400296 -0.0168953 0.0886438 10.6453 3.09966 -0.709479 0.004 300 0 
311 1 1 -0.00757889 -0.0437004 0.0101501 0 0 0 -0.115972 -0.0553438 0.0328433 -0.0715136 -0.0301251 0.0299302 7.83818 -6.57532 -8.22538 0.004 300 0 
447 1 1 0.0174417 -0.042746 0.011616 0 0 0 0.0090823 0.00602682 0.0134722 -0.0486044 0.0790382 0.0153106 6.38576 -4.76484 2.22052 0.004 300 0 
538 1 1 -0.0295497 -0.0352239 0.014382 0 0 0 -0.0145958 -0.0130445 0.0182629 0.000623937 -0.0596491 -0.0319204 6.37223 4.68214 6.26899 0.004 300 0 
810 1 1 -0.00999967 -0.0352459 0.0103606 0 0 0 -0.0222736 -0.00567743 0.0226346 0.048865 0.0917642 -0.233503 -1.31355 -3.04265 -1.74772 0.004 300 0 
279 1 1 0.0111463 -0.0383781 0.0130571 0 0 0 -0.0248318 0.00446637 0.00462941 -0.0381446 -0.00127396 0.0199039 6.02349 -9.91417 -4.72611 0.004 300 0 
110 1 1 0.0244285 -0.0391157 0.0115918 0 0 0 0.0220424 0.043492 0.0631065 0.0394922 -0.0106663 0.078549 -2.92729 -3.45133 3.23819 0.004 300 0 
415 1 1 -0.025255 -0.0298403 0.0101453 0 0 0 -0.140749 0.0131491 -0.00117042 -0.0385869 -0.0443238 0.0605187 -1.66232 -7.8237 -7.15896 0.004 300 0 
188 1 1 -0.01732 -0.0322677 0.00995729 0 0 0 -0.0492772 -0.024161 0.0479568 -0.0113505 0.0421972 0.0676708 6.91757 -7.09922 -6.90613 0.004 300 0 
412 1 1 -0.00298284 -0.0323384 0.0122647 0 0 0 -0.0380555 -0.0349556 0.0331913 -0.025062 0.0679871 0.041189 -14.5461 -1.20712 -9.28198 0.004 300 0 
545 1 1 0.00454508 -0.0343427 0.0122775 0 0 0 -0.0254384 -0.00957505 0.0121212 0.0371173 0.0163306 0.0377747 0.558755 7.05968 12.0165 0.004 300 0 
100 1 1 0.0113292 -0.0304754 0.0118698 0 0 0 0.0120292 0.0344972 -0.0217234 0.0999147 -0.00116349 0.0606356 18.597 2.17296 -4.15049 0.004 300 0 
556 1 1 0.0178952 -0.0347549 0.0111559 0 0 0 -0.00541157 0.0284136 0.0402035 0.0957099 -0.0246049 -0.00617924 20.3006 -6.8175 5.02242 0.004 300 0 
32 1 1 0.0306796 -0.0344272 0.0124618 0 0 0 0.020734 0.0511925 0.0712767 0.0231445 -0.00688975 -0.0415399 9.01557 -4.20241 4.12913 0.004 300 0 
5 1 1 -0.0385024 -0.0251683 0.0117399 0 0 0 0.0135434 -0.0174232 -0.0410169 -0.0149371 -0.00280423 -0.0702178 1.37327 1.17752 -2.92207 0.004 300 0 
768 1 1 -0.0188602 -0.0257389 0.0140899 0 0 0 0.137338 -0.00419109 0.119285 0.0698016 -0.0215373 0.129468 -11.0159 5.07271 9.0674 0.004 300 0 
446 1 1 -0.0106465 -0.0278485 0.0132236 0 0 0 -0.0102501 -0.0116957 0.0637874 -0.111038 -0.0844861 0.172548 -20.7551 12.6522 -12.8524 0.004 300 0 
266 1 1 -0.0306165 -0.0222212 0.0103079 0 0 0 0.00670721 -0.105849 -0.0250682 -0.00590832 0.178732 -0.178065 -16.7239 4.50669 6.80039 0.004 300 0 
655 1 1 0.00269253 -0.0212942 0.0111817 0 0 0 -0.0494386 0.110353 0.0267707 -0.0768072 -0.143935 0.0195309 -2.44284 6.00388 -13.5176 0.004 300 0 
243 1 1 0.0114022 -0.0227007 0.0108237 0 0 0 -0.0794989 0.0517664 0.113824 -0.0106923 -0.0178534 0.0172371 -11.5463 -2.14683 8.15939 0.004 300 0 
24 1 1 0.0295729 -0.0245709 0.0116449 0 0 0 -0.0624294 0.0564387 0.0211384 0.028014 -0.00483968 0.0251977 4.0268 -0.124118 18.269 0.004 300 0 
528 1 1 0.0396284 -0.0236019 0.0134979 0 0 0 0.0401714 0.0882967 0.102512 -0.0235282 -0.0172187 0.0172957 -16.8063 -0.656961 -9.62088 0.004 300 0 
356 1 1 -0.0362723 -0.0165607 0.0109968 0 0 0 0.0883719 -0.014876 -0.0692249 0.0635198 0.0544452 0.0109827 10.9167 -4.56724 -14.5423 0.004 300 0 
487 1 1 -0.0222599 -0.0198208 0.0101176 0 0 0 0.0131574 -0.0486729 0.0752675 0.0929408 -0.0560097 0.0285316 11.9945 3.44408 10.9845 0.004 300 0 
739 1 1 -0.0112492 -0.0191851 0.0107546 0 0 0 -0.024145 0.0257774 0.0398755 0.0470858 0.13696 0.0354321 -3.07495 3.27016 7.85197 0.004 300 0 
30 1 1 0.00811634 -0.0158466 0.0129589 0 0 0 0.121987 0.170093 -0.0698036 0.302856 -0.0409911 -0.0179283 1.79102 14.826 1.57063 0.004 300 0 
309 1 1 0.0232367 -0.0199591 0.0106786 0 0 0 -0.110685 0.0395454 0.0145957 -0.0203375 -0.183508 -0.0489415 3.05319 -4.59862 -14.4063 0.004 300 0 
418 1 1 0.0425751 -0.0163417 0.0118633 0 0 0 -0.0439431 -0.0135716 0.0144987 2.56377e-05 0.000212474 -0.0193326 6.13399 -10.1179 -0.93219 0.004 300 0 
673 1 1 -0.0438715 -0.0140381 0.0103711 0 0 0 0.0102973 -0.00527763 0.0123125 0.0359677 -0.0755521 -0.0935873 13.9487 -0.597896 10.2163 0.004 300 0 
112 1 1 -0.0277742 -0.0153007 0.0147335 0 0 0 0.0756993 -0.0111517 0.0290691 0.161765 0.0315936 -0.0234075 4.35939 12.8275 -1.35444 0.004 300 0 
445 1 1 -0.0171062 -0.0138854 0.0103881 0 0 0 -0.0231833 0.0124642 0.0331944 -0.00108186 0.0207403 -0.0348322 -2.9302 3.01366 -5.31755 0.004 300 0 
775 1 1 -0.0103655 -0.00984284 0.0106319 0 0 0 -0.0105873 0.0059308 0.0272845 -0.0277167 -0.00293614 -0.00942234 -3.9488 -10.3109 5.54156 0.004 300 0 
64 1 1 0.000533222 -0.0141943 0.0142228 0 0 0 0.0702155 -0.00212833 -0.0849929 0.0114648 -0.0456324 0.0564912 4.97294 4.83565 -0.997943 0.004 300 0 
332 1 1 0.0220023 -0.0122155 0.0104812 0 0 0 -0.0232475 0.0408045 0.0162988 -0.00619597 -0.0207993 0.0336787 0.52007 2.51874 -1.20002 0.004 300 0 
374 1 1 0.0294738 -0.0147637 0.010968 0 0 0 -0.0192987 -0.0165648 0.0631406 0.0784605 0.00422187 0.045697 -4.66697 8.12766 -6.31838 0.004 300 0 
222 1 1 -0.0453598 -0.00817499 0.0152492 0 0 0 -0.00641327 -0.064992 -0.00666847 -0.00122221 0.105885 0.120239 -11.0416 -2.92109 -13.6081 0.004 300 0 
388 1 1 -0.0347009 -0.00876223 0.0103282 0 0 0 -0.0976307 0.0254959 -0.114354 -0.108772 -0.00372131 -0.0569831 -2.65547 18.3231 8.08898 0.004 300 0 
437 1 1 -0.0238765 -0.00988236 0.0106245 0 0 0 -0.00511031 0.0122257 0.00705515 0.0168717 0.0541233 0.0366133 0.389433 -7.05502 1.52559 0.004 300 0 
482 1 1 -0.0173499 -0.00535724 0.0104192 0 0 0 -0.189186 0.0509727 -0.00975525 0.0376768 -0.021618 0.0777733 -4.58882 -0.488361 0.307548 0.004 300 0 
73 1 1 -0.00304668 -0.00697332 0.010206 0 0 0 -0.0406054 0.0157365 0.0750958 0.0540286 0.0348011 -0.0202129 16.9005 8.14082 -4.6742 0.004 300 0 
783 1 1 0.00498383 -0.00923325 0.00987621 0 0 0 -0.0733323 0.0581636 0.0122442 -0.0924134 -0.0330409 -0.0595494 27.2406 3.97389 32.6439 0.004 300 0 
194 1 1 0.0133279 -0.00753218 0.0101248 0 0 0 -0.0933065 0.102089 0.052739 0.0930157 0.153431 0.179626 2.33808 7.70928 26.3631 0.004 300 0 
706 1 1 0.0275663 -0.00657578 0.010704 0 0 0 -0.0832641 0.154444 0.0715305 -0.0325276 0.0725287 -0.0375584 -9.79156 10.222 15.877 0.004 300 0 
589 1 1 0.0351958 -0.00866217 0.0106296 0 0 0 -0.0817618 0.0333233 0.00529314 0.113555 -0.03966 -0.0275571 -8.58594 -18.7792 -30.1708 0.004 300 0 
840 1 1 0.0452714 -0.00827293 0.0116246 0 0 0 0.041726 0.105992 0.00889041 0.0290024 -0.0281831 -0.00369745 16.8764 -5.66673 -1.22336 0.004 300 0 
717 1 1 -0.0424249 -0.00304659 0.0101416 0 0 0 0.0240571 -0.118505 -0.0351954 -0.0455138 0.108055 -0.0185883 -4.93771 -9.40392 18.2826 0.004 300 0 