ITEM: TIMESTEP
25600
ITEM: NUMBER OF ATOMS
891
ITEM: BOX BOUNDS mm mm mm
-0.05 0.05
-0.05 0.05
0 0.15
ITEM: ATOMS id type type x y z ix iy iz vx vy vz fx fy fz omegax omegay omegaz radius f_Temp[0] f_heatFlux[0] 
199 1 1 -0.00444378 -0.0458158 0.00397434 0 0 0 3.82777e-07 3.28225e-06 4.76482e-06 1.59316e-06 2.18902e-06 3.14358e-06 0.000447489 -5.45449e-05 1.19653e-05 0.004 432.757 7.63026 
873 1 1 -0.0201484 -0.0414789 0.00390159 0 0 0 5.3473e-07 1.73731e-06 1.95054e-06 1.13694e-06 1.35605e-07 1.96089e-06 0.000156758 -0.000102579 0.000127458 0.004 328.228 7.16055 
485 1 1 -0.0126796 -0.0442534 0.00397263 0 0 0 3.72388e-07 2.8576e-06 3.30562e-06 1.66199e-06 -4.20783e-08 3.39168e-06 2.30901e-05 -0.000583273 0.000355138 0.004 347.873 10.0037 
850 1 1 0.00335641 -0.0441759 0.00394114 0 0 0 1.29886e-06 7.71892e-06 6.10879e-06 1.05983e-06 3.45007e-06 3.43062e-06 -0.00112753 0.000560227 7.51241e-06 0.004 563.968 -5.87229 
186 1 1 0.0114401 -0.0445988 0.00392827 0 0 0 -1.3532e-07 3.52526e-06 5.14184e-06 9.33545e-09 1.35697e-06 1.66132e-06 -0.000170709 0.000610587 -0.000136627 0.004 716.385 -11.1587 
560 1 1 0.018969 -0.0420006 0.00394676 0 0 0 -1.77918e-06 2.80092e-06 3.88859e-06 2.31399e-07 6.74576e-07 9.46721e-07 -0.000123899 0.000105931 -0.00018368 0.004 753.568 -9.15718 
102 1 1 -0.0147501 -0.0357331 0.0038631 0 0 0 -4.69292e-08 4.75552e-06 6.42139e-06 2.345e-06 -2.79106e-07 3.37757e-06 -0.000343771 -0.000305338 0.000437857 0.004 357.357 8.58415 
88 1 1 -0.00730763 -0.0383837 0.00392725 0 0 0 5.39526e-07 6.16056e-06 7.10323e-06 2.60575e-06 1.9631e-06 5.56637e-06 -0.000676072 4.41178e-05 0.000140618 0.004 412.804 8.67704 
776 1 1 0.00520384 -0.0354368 0.00395022 0 0 0 -1.57017e-06 9.8098e-06 9.96713e-06 2.30045e-06 5.20054e-06 4.19394e-06 -0.00157397 0.000311423 -0.000792933 0.004 626.787 -3.47146 
410 1 1 0.0130236 -0.0368131 0.00392571 0 0 0 -2.8963e-06 5.08629e-06 8.8145e-06 1.23651e-06 1.80996e-06 2.92537e-06 -0.000219611 7.42898e-05 5.60397e-05 0.004 715.513 -9.05434 
282 1 1 0.025876 -0.0381319 0.00388527 0 0 0 -2.44489e-06 1.54703e-06 4.7457e-06 1.15499e-06 1.39131e-06 3.19971e-07 0.000458245 -0.00031859 0.000216008 0.004 783.542 -5.18874 
682 1 1 -0.0302016 -0.0348779 0.00393465 0 0 0 -5.74181e-07 6.67427e-07 1.36616e-07 2.93401e-07 -7.33285e-07 8.23291e-08 -7.57799e-05 -9.07783e-05 0.000316915 0.004 307.021 2.64958 
251 1 1 -0.022419 -0.0338476 0.00392331 0 0 0 -4.67895e-07 2.63004e-06 3.019e-06 1.02977e-06 -5.86631e-07 2.18839e-06 -0.000179319 -0.000603517 0.000120566 0.004 322.743 5.86132 
770 1 1 -0.00204755 -0.0321408 0.00393963 0 0 0 -1.52631e-06 1.08281e-05 8.14014e-06 3.1837e-06 6.38758e-06 5.22088e-06 -0.00181546 -0.000462134 0.00130124 0.004 532.977 3.16754 
883 1 1 0.018166 -0.0307536 0.00390023 0 0 0 -4.56093e-06 4.32352e-06 1.29485e-05 2.35505e-06 1.38805e-06 1.99322e-06 -0.000464364 -0.00162326 -0.000243084 0.004 756.569 -7.56705 
838 1 1 0.0320336 -0.033109 0.00396073 0 0 0 -3.57017e-06 1.57323e-06 7.176e-06 6.47317e-07 1.91307e-06 -5.3911e-07 0.000908392 5.33044e-05 0.000325601 0.004 794.121 -2.5159 
617 1 1 -0.0372521 -0.0271215 0.00391646 0 0 0 -9.34256e-07 -1.24706e-07 -1.18629e-06 9.19632e-07 -2.90465e-07 2.39716e-08 2.43442e-06 -1.70592e-05 0.000137408 0.004 301.19 0.697232 
824 1 1 -0.0292999 -0.0270298 0.00392983 0 0 0 -1.89337e-06 5.25642e-07 -4.06357e-07 1.90321e-06 -1.21941e-06 6.92006e-07 -0.00016258 -0.000471006 -5.724e-05 0.004 303.948 1.76977 
571 1 1 -0.0202615 -0.0262215 0.00393284 0 0 0 -1.20941e-06 3.62954e-06 3.28818e-06 1.09456e-06 -2.35714e-06 2.06788e-06 -0.000469797 -0.000474589 0.000517491 0.004 320.06 5.61291 
861 1 1 -0.00959297 -0.0297304 0.00389697 0 0 0 -1.09926e-06 6.01595e-06 8.63214e-06 2.55088e-06 -9.74645e-08 3.97348e-06 -0.000434358 -0.000121525 -0.000243287 0.004 405.572 9.86419 
434 1 1 0.0103455 -0.0293807 0.00393741 0 0 0 -2.39342e-06 7.66994e-06 1.01155e-05 2.79759e-06 2.2801e-06 2.9757e-06 -0.000941736 0.000288067 -0.000562819 0.004 695.724 -7.9109 
103 1 1 0.0311547 -0.0252347 0.00394363 0 0 0 -4.76326e-06 2.74025e-06 1.01569e-05 5.55607e-07 3.43357e-06 -1.82875e-07 -0.00050816 0.000560703 3.46451e-05 0.004 795.081 -2.04306 
769 1 1 -0.041344 -0.0202818 0.0039823 0 0 0 -4.50857e-07 3.49991e-07 -1.15961e-06 1.54094e-06 3.39625e-07 7.23503e-07 -0.000110682 0.000232185 1.06308e-05 0.004 300.423 0.289876 
94 1 1 -0.0333714 -0.0202163 0.00394369 0 0 0 -1.42773e-06 2.53085e-07 -3.18849e-06 3.17325e-06 6.0291e-09 1.40382e-07 -0.000451192 -6.71175e-06 -7.42856e-05 0.004 302.034 1.01006 
40 1 1 -0.025401 -0.0201463 0.00391761 0 0 0 -2.12603e-06 1.23703e-06 -1.43939e-06 4.28733e-06 -1.37874e-06 1.13008e-06 -0.000667221 -0.000456496 0.000289677 0.004 308.056 2.88352 
19 1 1 -0.00865075 -0.0218804 0.00393965 0 0 0 1.81639e-06 4.07012e-06 5.94912e-06 2.67403e-06 -1.45735e-06 3.67686e-06 -0.000972499 -0.000204869 -0.000717681 0.004 405.627 10.6871 
442 1 1 -0.000436997 -0.02185 0.00393582 0 0 0 -7.78293e-07 4.18687e-06 1.17491e-05 3.15358e-06 1.31412e-06 2.27177e-06 -0.000233485 0.000203723 -0.000116024 0.004 539.376 5.169 
259 1 1 0.00753189 -0.0220001 0.0039251 0 0 0 -9.10031e-07 5.91236e-06 1.0419e-05 2.73628e-06 2.58785e-06 1.92667e-06 0.000124491 0.000572669 0.000432126 0.004 671.277 -6.28199 
512 1 1 0.0153883 -0.0232356 0.00397834 0 0 0 -3.49019e-06 4.11363e-06 7.65235e-06 2.00032e-06 2.00331e-06 1.7684e-06 -0.000362637 -0.000908435 -0.000414614 0.004 745.995 -7.22429 
470 1 1 0.0232616 -0.0243589 0.00390815 0 0 0 -5.71853e-06 3.16012e-06 1.30642e-05 7.88466e-07 3.39043e-06 2.31517e-08 -0.00103041 -0.000791005 3.37123e-05 0.004 783.067 -4.63933 
451 1 1 0.0390293 -0.0244875 0.00392048 0 0 0 -3.03051e-06 1.10025e-06 2.45431e-06 1.06092e-06 2.10715e-06 -3.05453e-07 -0.00036267 0.000110174 -0.000458974 0.004 798.547 -0.798456 
531 1 1 -0.0164596 -0.0192004 0.00396125 0 0 0 9.73784e-07 9.89213e-07 1.47768e-06 2.64122e-06 -3.63521e-06 2.20365e-06 -0.00031622 0.000310059 -0.00189715 0.004 325.965 6.30167 
229 1 1 0.0202059 -0.0169136 0.00386875 0 0 0 -7.18078e-06 4.86986e-06 1.2124e-05 2.35138e-06 4.09116e-06 6.6153e-07 -0.000286552 -0.000445434 0.000964686 0.004 774.122 -5.87316 
734 1 1 0.0280521 -0.017942 0.00394397 0 0 0 -5.45671e-06 4.19721e-06 8.46822e-06 3.62893e-06 7.2733e-06 -1.13761e-06 -0.000648066 0.00012906 -0.000446868 0.004 793.293 -2.36843 
635 1 1 0.0425981 -0.0174495 0.00392192 0 0 0 -1.66214e-06 4.5937e-08 7.45369e-07 2.41202e-06 2.16637e-07 -2.12889e-06 1.92672e-05 -0.000413884 8.35423e-05 0.004 799.704 -0.20406 
87 1 1 -0.0448224 -0.0104639 0.0039142 0 0 0 -1.43775e-06 2.20343e-07 -2.38339e-06 1.03691e-07 8.92145e-07 -1.36394e-07 0.000100532 -0.000243184 -0.00015422 0.004 300.103 0.0825034 
406 1 1 -0.0373951 -0.013391 0.00396016 0 0 0 8.09371e-07 2.94088e-07 -4.84099e-06 4.92143e-06 1.88229e-07 -7.87997e-07 -0.000440402 0.000795704 -0.000333726 0.004 300.477 0.308293 
224 1 1 -0.0230581 -0.0126019 0.00387961 0 0 0 8.48869e-07 -1.21779e-06 -3.28326e-06 3.67351e-06 -3.60081e-06 -2.6743e-06 0.000384427 -1.53339e-06 -0.00119235 0.004 316.002 4.25451 
751 1 1 -0.0102997 -0.0141545 0.00396945 0 0 0 3.06505e-06 -6.7761e-07 1.33863e-06 3.41424e-06 -2.98295e-06 5.78706e-07 2.8981e-05 -0.00112892 0.000980332 0.004 383.649 8.91579 
622 1 1 -0.00273391 -0.0117409 0.00388523 0 0 0 1.17068e-06 3.63972e-06 8.63907e-06 3.56948e-06 -6.08591e-07 3.21491e-06 -0.000610819 8.45765e-05 -0.000516649 0.004 488.874 3.48067 
128 1 1 0.00951065 -0.010685 0.00388458 0 0 0 -6.89246e-06 6.03374e-06 1.33345e-05 2.93856e-06 3.13939e-06 7.85417e-07 -0.00137037 -0.00047748 0.000391748 0.004 707.729 -8.44496 
68 1 1 0.0262808 -0.010211 0.00395439 0 0 0 -7.75354e-06 4.7131e-06 7.18177e-06 3.01943e-06 6.55452e-06 -2.71529e-06 -0.000438337 -0.000524293 0.000383681 0.004 794.979 -2.05175 
791 1 1 0.0340944 -0.0118532 0.00392802 0 0 0 -7.42446e-06 4.07249e-06 5.06994e-06 5.14982e-06 1.24181e-05 -4.52655e-06 -0.0014296 -0.00131985 -0.000161997 0.004 799.059 -0.54009 
354 1 1 -0.0380749 -0.00550395 0.00392042 0 0 0 6.27622e-07 1.08e-07 -6.60961e-06 3.15754e-06 -7.86766e-07 -8.3533e-07 -0.000393528 -0.000115007 0.000570412 0.004 300.462 0.290797 
725 1 1 -0.0304901 -0.0080053 0.00392521 0 0 0 3.23779e-06 -6.2721e-07 -5.46303e-06 2.36228e-06 1.18057e-06 -1.56773e-06 -0.000179384 0.000696112 -0.00173028 0.004 301.846 0.9271 
353 1 1 -0.0161288 -0.00879807 0.00391144 0 0 0 4.05049e-06 -7.66802e-06 -2.9531e-06 5.412e-07 -6.41821e-06 -1.71484e-06 0.00175649 0.000314641 -0.000328965 0.004 344.845 7.33308 
391 1 1 -0.00857663 -0.00639747 0.00391357 0 0 0 -1.84226e-06 1.90378e-06 1.2181e-06 4.27394e-06 4.97858e-07 2.13277e-06 -0.000896774 -0.000939913 0.00169285 0.004 408.969 8.57767 
683 1 1 0.0173533 -0.0094563 0.00390987 0 0 0 -8.20862e-06 5.99985e-06 9.45001e-06 3.03799e-06 3.49903e-06 -1.623e-06 -0.00161166 -0.000690675 -0.000477612 0.004 767.254 -6.56033 
690 1 1 0.0385537 -0.00520145 0.00390023 0 0 0 -2.64657e-06 1.53603e-06 1.70403e-06 5.18142e-06 1.07414e-05 -3.8965e-06 -0.000354365 -0.000394006 -0.000213971 0.004 799.659 -0.216513 
10 1 1 0.0449635 -0.00990888 0.00397399 0 0 0 -1.45494e-06 3.59924e-07 1.41026e-06 -1.67421e-07 1.40742e-06 -7.69639e-07 2.71195e-05 2.9394e-05 -1.47394e-05 0.004 799.906 -0.0749055 
402 1 1 -0.046017 -0.00264172 0.00392182 0 0 0 -9.19726e-07 2.25862e-07 -3.72761e-06 4.34109e-07 -1.72422e-07 -1.07992e-06 -0.000200394 0.000398683 5.45822e-05 0.004 300.164 0.115677 
761 1 1 -0.0294744 -0.000168325 0.00392564 0 0 0 4.04307e-06 -4.18763e-07 -1.03948e-05 -2.11777e-06 -6.36576e-07 -2.53526e-06 0.000131508 0.000733227 0.0011435 0.004 304.516 1.80065 
293 1 1 -0.0229324 -0.00466871 0.00395951 0 0 0 7.86848e-06 3.41973e-07 -1.11306e-05 -7.17138e-06 -5.30097e-06 -1.10151e-06 -0.00304131 0.00159899 -0.00112885 0.004 314.043 4.11492 
384 1 1 -0.0148025 -0.000807812 0.00398133 0 0 0 0.000746289 5.25861e-05 5.18225e-05 0.000148246 -0.000172894 -2.76524e-05 -0.0114517 0.20563 0.203406 0.004 300.339 2.12023 
378 1 1 0.00130607 -0.00490406 0.00392906 0 0 0 -3.63769e-06 4.69561e-06 6.38262e-06 3.34439e-06 1.0014e-06 2.52829e-07 -0.00144561 -0.00177946 0.00154106 0.004 566.318 -3.93235 
390 1 1 0.0103706 -0.00276531 0.00396886 0 0 0 -9.3373e-06 5.34565e-06 6.4225e-06 4.0743e-06 3.4823e-06 -2.21419e-06 -0.00114221 -0.00180977 0.000220587 0.004 736.88 -10.3011 
411 1 1 0.0223603 -0.00329287 0.00397626 0 0 0 -9.25469e-06 4.77105e-06 5.76121e-06 9.949e-07 5.64519e-06 -2.21397e-06 -0.000261736 -0.00169692 0.000360528 0.004 790.001 -3.38193 
342 1 1 0.0307348 -0.00361667 0.00397529 0 0 0 -3.31871e-06 3.73447e-06 2.87848e-06 1.11421e-06 1.17403e-05 -4.51202e-07 -0.000529264 1.81571e-05 -0.000735938 0.004 798.975 -0.580968 
262 1 1 0.0460221 -0.00206506 0.00395833 0 0 0 -2.02322e-06 4.29416e-07 1.2243e-06 -8.89665e-07 2.14766e-06 9.86875e-07 1.89556e-05 -6.77504e-05 0.000285776 0.004 799.914 -0.0693359 
261 1 1 -0.0398215 0.00224601 0.00393476 0 0 0 -1.12391e-06 -4.26799e-07 -7.49844e-06 2.88842e-07 -5.99444e-07 -6.27208e-07 6.48714e-05 0.00074565 2.23052e-05 0.004 300.668 0.369073 
666 1 1 -0.00454678 0.000451434 0.00395604 0 0 0 -1.62404e-06 2.34014e-06 1.41401e-06 5.33292e-06 1.48426e-06 3.63028e-06 0.000337356 0.000451079 -0.00115204 0.004 465.099 6.47198 
815 1 1 0.00434365 0.0024356 0.00392712 0 0 0 -4.91592e-06 6.53647e-06 1.8094e-06 4.03927e-06 1.93439e-06 -1.00627e-06 -0.000727259 -0.000641053 -0.00106147 0.004 644.148 -8.98107 
306 1 1 0.01637 0.00247665 0.0039581 0 0 0 -9.73709e-06 7.30127e-06 5.75523e-06 2.33238e-06 7.09918e-06 -1.51542e-06 -0.00216479 -0.0017418 -0.000191878 0.004 778.097 -6.16351 
178 1 1 0.0241042 0.00444174 0.00386115 0 0 0 -7.14778e-06 4.2935e-06 5.07575e-06 4.49759e-07 7.12417e-06 -1.06831e-06 -0.000976748 -0.00100192 -0.000795047 0.004 791.06 -3.18593 
862 1 1 0.0320656 0.00423365 0.00393098 0 0 0 -4.76278e-06 4.1478e-06 3.27083e-06 -6.04856e-07 1.1017e-05 -3.8413e-06 -0.000511959 -0.00019955 0.000662635 0.004 798.044 -0.972903 
661 1 1 0.0398756 0.00291469 0.0039468 0 0 0 -2.79463e-06 2.24343e-06 2.35284e-06 -7.06752e-07 4.91039e-06 7.42146e-07 -6.51939e-05 -6.73203e-05 -0.000682921 0.004 799.622 -0.2428 
677 1 1 -0.0453782 0.0078854 0.00393641 0 0 0 -1.8136e-06 -2.38255e-07 -2.93278e-06 -2.81581e-07 -3.83174e-07 -2.3309e-07 0.000103289 -5.16691e-05 0.000142931 0.004 300.157 0.113111 
12 1 1 -0.0333161 0.00671961 0.00393696 0 0 0 -1.55306e-06 -7.91727e-07 -7.69179e-06 1.19757e-06 3.71445e-07 -1.8429e-06 0.000570978 -0.000788465 -0.000204707 0.004 302.737 1.17308 
420 1 1 -0.0254 0.0066484 0.00392688 0 0 0 3.8603e-06 -1.30941e-06 -1.10859e-05 7.96984e-06 -1.25124e-06 -4.17931e-07 0.000837622 0.00191544 0.000170874 0.004 310.983 3.25987 
654 1 1 -0.0175135 0.00720949 0.00387214 0 0 0 6.80269e-06 3.19649e-06 -1.1503e-05 1.06449e-05 -1.88399e-06 3.1237e-06 0.00082231 -0.000461498 0.00217219 0.004 334.87 6.65558 
145 1 1 -0.0045441 0.00836538 0.00386311 0 0 0 1.85013e-06 6.35793e-06 -8.90105e-07 7.32252e-06 3.86019e-06 3.36168e-06 -0.00137246 5.35991e-05 -0.000107205 0.004 459.939 7.27285 
624 1 1 0.0451449 0.00890652 0.00390658 0 0 0 -1.7446e-06 8.86859e-07 1.26063e-06 8.8138e-07 3.14017e-06 -1.3065e-06 -0.000254504 -0.000352169 0.000159885 0.004 799.849 -0.111722 
613 1 1 -0.0372991 0.0135339 0.00384344 0 0 0 -4.39159e-06 -2.58654e-07 -7.56314e-06 -2.38365e-07 -9.63281e-08 -1.5383e-06 -3.32344e-05 -0.000992808 0.000660221 0.004 300.906 0.496967 
265 1 1 -0.0293062 0.0135429 0.00396371 0 0 0 -1.73158e-06 -1.84266e-07 -4.73864e-06 7.97679e-07 1.02493e-06 -1.28523e-06 -0.000270224 0.000136981 0.000397944 0.004 304.602 1.89388 
273 1 1 -0.0213694 0.0141274 0.00392939 0 0 0 -1.32911e-06 1.38593e-06 -6.90885e-06 1.64188e-06 5.70806e-07 3.2518e-06 0.000466007 -0.000106721 3.44488e-05 0.004 314.242 4.33175 
492 1 1 -0.01145 0.0123713 0.00398079 0 0 0 1.56499e-06 4.40789e-06 -4.77456e-06 4.69969e-06 3.51067e-06 3.6509e-06 -0.000562602 -0.000224654 -5.54237e-05 0.004 367.07 10.8799 
234 1 1 0.00585283 0.010393 0.00392891 0 0 0 -3.14064e-06 5.35539e-06 1.71249e-06 3.84548e-06 3.51044e-06 -1.46332e-06 -0.00106237 -0.000321124 -0.000338056 0.004 624.963 -5.54995 
160 1 1 0.0142843 0.0106356 0.00390958 0 0 0 -5.06095e-06 4.92431e-06 4.10935e-06 1.35181e-06 6.34383e-06 -9.0361e-08 -0.00130206 -0.000400369 0.000492325 0.004 742.716 -8.38181 
484 1 1 0.0220893 0.0120738 0.0039012 0 0 0 -4.14513e-06 5.1969e-06 1.73441e-06 4.63353e-07 6.84637e-06 -1.84232e-07 -0.000707512 -0.000456019 -0.000175841 0.004 782.602 -4.5469 
743 1 1 0.0300184 0.0126216 0.00398127 0 0 0 -2.83889e-06 2.00719e-06 1.18451e-06 3.28697e-07 7.94596e-06 6.88213e-07 -0.000348325 0.00011095 -0.000563678 0.004 794.85 -2.02334 
514 1 1 0.0379536 0.0130186 0.00386906 0 0 0 -2.4215e-06 1.74731e-06 1.54399e-06 -8.07025e-07 5.53081e-06 3.0519e-07 -0.00024002 -0.000441063 0.000557903 0.004 798.865 -0.599503 
530 1 1 -0.0159002 0.0198648 0.00392797 0 0 0 -2.26717e-06 2.55184e-06 -6.78918e-06 1.54274e-06 -2.36636e-07 -4.68897e-07 0.000222356 0.000245863 0.000111173 0.004 330.915 7.183 
227 1 1 -0.00736504 0.0192084 0.00396595 0 0 0 -1.76623e-06 2.6306e-06 -5.0168e-06 2.90579e-06 -1.21919e-06 -3.29705e-07 -0.000238318 -0.000645775 0.000592708 0.004 413.924 11.1974 
392 1 1 -0.000498646 0.0151513 0.00394447 0 0 0 -1.71717e-06 5.09096e-06 -2.22907e-06 6.71744e-06 1.67947e-06 -5.60809e-07 -0.000385133 -0.000618429 0.000239679 0.004 515.128 4.51845 
493 1 1 0.00985838 0.0172531 0.00394648 0 0 0 -3.98338e-06 4.1299e-06 4.63074e-07 1.47383e-06 3.33032e-06 -8.06308e-07 -0.00025168 -0.000310508 7.27679e-05 0.004 683.918 -7.86769 
34 1 1 0.0176357 0.0187852 0.00394101 0 0 0 -4.23434e-06 4.72639e-06 8.84168e-07 8.92869e-07 5.37113e-06 -6.49956e-08 -0.00111124 -0.000496249 -4.47831e-05 0.004 752.234 -7.57734 
206 1 1 0.0255397 0.0192352 0.00396994 0 0 0 -3.0643e-06 3.55456e-06 9.75891e-07 5.34191e-07 4.96759e-06 -4.27343e-08 -0.000187201 -9.67121e-05 -0.000104795 0.004 785.834 -3.90475 
104 1 1 0.0334175 0.0199346 0.0038965 0 0 0 -2.56735e-06 2.23592e-06 1.26001e-06 6.74776e-07 4.73292e-06 1.03164e-06 -0.000389885 -0.000337588 -0.000257712 0.004 796.188 -1.56458 
809 1 1 -0.0412059 0.0204949 0.00395497 0 0 0 -1.85859e-06 -8.11641e-07 -3.70512e-06 -1.28545e-08 -8.90179e-08 -1.44174e-07 0.000601999 0.000134932 -0.000446129 0.004 300.256 0.187339 
773 1 1 -0.0331523 0.0204531 0.00393522 0 0 0 -4.38194e-06 8.11717e-07 -8.39676e-06 6.00175e-07 8.14626e-07 -9.05971e-07 -5.45532e-05 -0.00100585 -0.000321332 0.004 302.06 1.05393 
792 1 1 0.00347676 0.0219735 0.00392106 0 0 0 -3.22026e-06 4.1887e-06 -1.36679e-06 2.15767e-06 2.0115e-06 -2.28706e-07 -0.00033862 -0.000492944 7.25345e-06 0.004 596.243 -2.6713 
718 1 1 0.0413199 0.0203659 0.00392989 0 0 0 -1.38843e-06 1.01496e-06 8.17493e-07 2.92939e-07 2.92769e-06 4.93215e-07 -0.000291833 -6.20215e-05 -0.000124089 0.004 799.029 -0.546036 
101 1 1 -0.0371146 0.0272995 0.00390402 0 0 0 -2.53314e-06 4.75401e-07 -3.21469e-06 3.80524e-08 -1.72e-07 -3.15671e-07 0.000300572 -0.000190603 0.000133063 0.004 301.002 0.601522 
246 1 1 -0.0290567 0.0272807 0.00398271 0 0 0 -3.21689e-06 -1.12896e-06 -3.57279e-06 3.51891e-07 -4.24122e-09 -6.71858e-07 0.000635331 -0.000217531 5.52618e-05 0.004 303.054 1.35076 
331 1 1 -0.0212281 0.0257799 0.00390018 0 0 0 -2.70663e-06 9.30808e-07 -5.02946e-06 1.95892e-06 2.23259e-07 -4.1572e-07 -0.000123455 -0.000424583 0.000509242 0.004 315.935 4.33129 
846 1 1 -0.0134708 0.0274168 0.0039748 0 0 0 -3.52852e-06 3.25076e-06 -3.88702e-06 2.80708e-06 3.36648e-07 3.13943e-07 -0.000473294 -0.000601449 0.000141588 0.004 353.386 8.08487 
348 1 1 -0.00329917 0.0260612 0.00393375 0 0 0 -3.91318e-06 2.94242e-06 -3.46054e-06 2.27485e-06 -5.15309e-07 6.71158e-07 4.61582e-05 -0.000949077 -3.76271e-05 0.004 490.101 5.37076 
786 1 1 0.00840353 0.0281551 0.00389685 0 0 0 -2.74772e-06 4.0242e-06 -8.04714e-07 1.69698e-06 2.10201e-06 8.38079e-08 -0.000715102 -0.000243108 0.00016811 0.004 666.877 -7.83871 
316 1 1 0.0162833 0.0272928 0.0039063 0 0 0 -3.42629e-06 3.63286e-06 -5.88907e-07 1.19645e-06 4.19039e-06 3.19999e-07 -0.000755642 -0.000350913 -0.000359909 0.004 750.953 -7.81396 
495 1 1 0.0288861 0.0264617 0.00396716 0 0 0 -2.34977e-06 2.80816e-06 2.55684e-07 1.26486e-06 3.29686e-06 8.24761e-08 -0.00025016 1.03829e-05 0.000194287 0.004 793.877 -2.45045 
863 1 1 0.0367263 0.0277633 0.00392937 0 0 0 -1.57436e-06 1.60239e-06 1.77164e-07 5.52317e-07 1.58026e-06 1.93428e-07 -0.000336589 -0.000255414 -0.000466282 0.004 798.55 -0.812199 
511 1 1 -0.00761835 0.0327132 0.00388553 0 0 0 -3.90865e-06 3.24426e-06 -3.81963e-06 1.7666e-06 -6.42148e-07 7.58022e-07 -0.000494639 -0.000692036 -0.000142172 0.004 441.873 8.44669 
722 1 1 0.00164033 0.0322874 0.00396636 0 0 0 -3.04911e-06 2.49217e-06 -9.92863e-07 1.28602e-06 7.39988e-07 2.86332e-07 -0.00016584 -0.000149893 0.000148405 0.004 576.473 -3.25954 
2 1 1 0.0229311 0.031696 0.00396244 0 0 0 -3.27058e-06 1.64716e-06 3.55022e-07 1.35924e-06 2.78009e-06 -7.72636e-07 -4.24241e-05 -0.000642146 -0.000118372 0.004 782.318 -5.30746 
254 1 1 0.0304818 0.0344418 0.0039815 0 0 0 -0.000818632 0.000870518 -4.66665e-14 6.23361e-18 -6.22507e-18 2.03868e-13 -0.218134 -0.205132 -0.0703935 0.004 800 0 
257 1 1 -0.0296322 0.0352231 0.00395613 0 0 0 -2.72295e-06 7.72577e-08 -1.68612e-06 5.67566e-07 -3.76432e-07 2.09976e-08 -0.00010561 -0.000271196 -0.000353519 0.004 302.683 1.35833 
582 1 1 -0.0157655 0.0356206 0.00393205 0 0 0 -7.55279e-06 1.19051e-06 -3.38252e-06 -8.9904e-07 -4.76686e-06 -4.15224e-07 -4.10911e-05 -0.00177268 -0.000677711 0.004 319.119 5.5217 
255 1 1 -0.00267125 0.038932 0.00391148 0 0 0 -1.886e-06 2.13227e-06 -1.83045e-06 1.23906e-06 -1.00533e-07 5.28518e-07 -0.000292569 -0.000399896 -0.000308647 0.004 500.631 3.65965 
887 1 1 0.00812084 0.0373183 0.00392889 0 0 0 -2.58515e-06 2.33853e-06 -3.84093e-07 5.92096e-07 1.73426e-06 3.07348e-07 -0.000433318 -0.00057603 -0.000356942 0.004 711.221 -11.2256 
719 1 1 0.0157853 0.0351951 0.00398364 0 0 0 -2.10244e-06 1.62191e-06 -7.01125e-07 8.35475e-07 2.08583e-06 -1.07367e-06 0.000334532 0.000146028 2.79699e-05 0.004 762.602 -8.56445 
21 1 1 0.0234243 0.0396338 0.00391497 0 0 0 -1.40937e-06 1.08181e-06 2.30078e-07 6.25376e-07 1.11701e-06 -3.84902e-07 -0.00023019 -0.000172687 -0.000165472 0.004 784.96 -4.78189 
325 1 1 -0.0222388 0.0402984 0.00393951 0 0 0 -2.83448e-06 5.53892e-07 -2.17979e-06 1.42443e-07 -7.03341e-07 2.3668e-07 0.000383887 -0.000234811 -0.000540172 0.004 312.203 4.21398 
595 1 1 -0.014931 0.0435393 0.00398254 0 0 0 -1.59707e-06 2.40412e-08 -7.19055e-07 1.35407e-06 -1.51105e-06 1.57531e-06 0.000217473 -0.000156289 -0.000313942 0.004 341.288 6.96632 
568 1 1 0.0162912 0.0430934 0.00392629 0 0 0 -1.29433e-06 8.16736e-07 1.92784e-07 2.55424e-07 8.04909e-07 -2.33859e-08 -5.6641e-05 -0.00010456 -0.000110906 0.004 756.526 -8.31976 
387 1 1 -0.00719691 0.045487 0.00389933 0 0 0 -3.78604e-07 1.21368e-06 -1.13061e-06 5.74958e-07 -2.84594e-07 4.95447e-07 5.30407e-05 3.66058e-05 -8.48416e-06 0.004 446.58 7.4249 
852 1 1 0.000758887 0.0460615 0.00397617 0 0 0 -4.66406e-07 7.2156e-07 -9.32751e-07 2.96749e-07 1.5563e-07 -2.5796e-09 0.000158781 -3.72779e-05 -5.77968e-05 0.004 565.337 -4.03696 
157 1 1 0.00865317 0.0452492 0.00389825 0 0 0 -1.08191e-06 1.14395e-06 -3.97078e-07 1.91346e-07 5.57577e-07 3.67713e-08 -0.00013837 -0.000264574 -0.000108421 0.004 690.404 -9.91359 
400 1 1 -0.0247521 -0.0387964 0.00974417 0 0 0 -9.90655e-07 1.81829e-06 1.40021e-06 1.13277e-06 9.83929e-08 1.95503e-06 -7.97178e-05 -5.71741e-05 0.000153457 0.004 310.541 3.95588 
606 1 1 -0.000653964 -0.0387266 0.00813889 0 0 0 -8.98259e-08 1.35695e-05 1.55023e-05 7.63101e-06 7.16836e-06 1.01118e-05 0.00017567 -0.000939597 0.000949424 0.004 538.406 2.57156 
724 1 1 -0.0339144 -0.0311598 0.00984801 0 0 0 -1.42702e-06 4.6043e-07 -5.60763e-07 8.15389e-07 -8.86896e-07 -3.9128e-07 -0.000178145 -0.000183496 0.000135423 0.004 302.522 1.23402 
183 1 1 0.0251947 -0.0311656 0.00751474 0 0 0 -5.65571e-06 1.20022e-06 1.81314e-05 1.48998e-06 2.37743e-06 2.23696e-07 0.0012368 0.000374542 3.79031e-05 0.004 785.762 -4.29797 
544 1 1 -0.0140218 -0.0253028 0.00874961 0 0 0 -3.51143e-06 9.51149e-06 1.11937e-05 2.99351e-06 -4.16754e-06 6.29889e-06 8.25003e-06 -0.00101691 0.000338036 0.004 356.558 8.61909 
29 1 1 -0.00450633 -0.0263793 0.00900725 0 0 0 -3.1335e-06 1.35135e-05 2.10845e-05 6.46665e-06 1.24192e-06 6.39871e-06 -0.00278613 -0.0014517 0.000111019 0.004 453.037 9.35011 
248 1 1 0.00349898 -0.0278426 0.00763304 0 0 0 -3.92708e-06 1.55988e-05 2.3213e-05 1.00431e-05 5.17418e-06 8.12117e-06 0.00344899 -4.20178e-05 -0.000705515 0.004 613.499 -5.46922 
79 1 1 0.035837 -0.0289489 0.00959647 0 0 0 -3.78467e-06 3.71668e-06 1.07012e-05 -1.18515e-07 2.55185e-06 -2.12968e-06 -0.000640886 0.00247194 -0.000788558 0.004 797.155 -1.40875 
291 1 1 -0.00458876 -0.0173975 0.0090952 0 0 0 -6.55545e-06 1.07054e-05 1.54193e-05 7.02797e-06 -3.04329e-06 5.77601e-06 -0.00110642 -0.00332778 -0.000189114 0.004 482.812 4.15083 
891 1 1 0.00373486 -0.015528 0.00632507 0 0 0 -4.41238e-06 6.54065e-06 1.80375e-05 5.05556e-06 2.25315e-06 3.35206e-06 -0.000685609 -0.00108257 0.000449858 0.004 607.221 -3.54114 
870 1 1 0.0138323 -0.0156364 0.00831015 0 0 0 -1.20568e-05 1.00124e-05 2.54825e-05 3.29606e-06 5.9383e-06 3.30352e-06 -0.00114907 0.000389768 -0.00102942 0.004 739.003 -9.1524 
777 1 1 0.034969 -0.018778 0.00771 0 0 0 -6.65549e-06 1.98427e-06 8.17767e-06 4.53886e-06 9.84108e-06 -6.10904e-07 0.00206557 8.48607e-05 0.00107245 0.004 798.447 -0.7828 
837 1 1 -0.029449 -0.0146727 0.00803325 0 0 0 -2.49285e-06 5.66592e-07 -6.3083e-06 7.28852e-06 -9.86283e-08 5.11461e-07 7.86809e-05 -0.000304756 0.00010623 0.004 304.643 1.78085 
445 1 1 -0.0181359 -0.0138493 0.00995274 0 0 0 -6.88856e-06 1.5496e-08 5.03225e-06 9.06329e-06 -2.93664e-06 2.04692e-06 -0.00337716 -0.00220009 -0.00176957 0.004 332.391 6.42548 
783 1 1 0.00485894 -0.00860658 0.00993767 0 0 0 -1.11194e-05 1.18377e-05 2.23331e-05 5.50167e-06 4.55937e-06 2.09187e-06 -0.000298293 -0.00101499 -0.00017036 0.004 632.691 -6.44337 
615 1 1 -0.0350999 -0.000758699 0.00955183 0 0 0 1.48629e-06 4.30574e-07 -1.59211e-05 2.72198e-06 -1.19421e-06 -1.552e-06 -0.000254394 0.00050728 0.000111743 0.004 301.491 0.716055 
476 1 1 -0.0459522 0.00262139 0.00988978 0 0 0 -2.29363e-06 4.8867e-07 -6.18354e-06 6.2239e-07 1.60592e-07 -1.85975e-06 -7.24932e-05 0.000404124 0.000597326 0.004 300.085 0.0675218 
16 1 1 -0.0210456 0.00169443 0.00830932 0 0 0 2.66176e-05 -7.06734e-06 -3.69001e-05 1.08046e-05 -2.40994e-06 -4.9097e-06 0.00174154 0.00255223 0.000358956 0.004 319.492 4.65438 
303 1 1 0.0459492 0.00350461 0.00962657 0 0 0 -2.91118e-06 1.8495e-06 2.62657e-06 1.98263e-06 7.56788e-06 -3.39645e-07 2.86792e-05 0.000488803 -0.000529263 0.004 799.878 -0.0943252 
523 1 1 -0.0389797 0.00803081 0.00932862 0 0 0 -6.47676e-06 -6.09046e-08 -1.56278e-05 2.04736e-07 8.91241e-07 -2.35804e-06 -0.000545698 -0.000811377 0.000892702 0.004 300.644 0.367186 
704 1 1 -0.010798 0.00519225 0.00743861 0 0 0 1.20656e-05 1.62734e-05 -1.7501e-07 1.62672e-05 5.25925e-06 6.33481e-06 -0.000910522 -0.0011575 0.00172312 0.004 383.569 7.184 
454 1 1 0.00101176 0.00715931 0.00933957 0 0 0 -5.60328e-06 9.6111e-06 2.0531e-06 9.81242e-06 1.70521e-06 2.22037e-06 0.000192537 -0.000859793 0.000490864 0.004 554.916 -0.168559 
31 1 1 0.0102164 0.00547589 0.00832592 0 0 0 -1.21395e-05 1.01513e-05 1.18869e-05 3.84201e-06 6.63006e-06 -2.05403e-06 -0.00146859 -0.00235053 -0.000378409 0.004 697.782 -9.02223 
135 1 1 0.0188885 0.00749166 0.00960785 0 0 0 -1.21339e-05 1.28105e-05 6.02304e-06 3.49368e-06 1.10238e-05 -6.63486e-07 -0.000630873 -0.000939917 -0.00117811 0.004 783.406 -5.04195 
712 1 1 0.0281139 0.00743262 0.00998858 0 0 0 -1.04987e-05 6.87108e-06 6.62471e-06 3.28241e-06 1.66121e-05 -4.55943e-06 0.000112246 -0.000252021 3.56685e-06 0.004 795.105 -2.06415 
210 1 1 0.0394934 0.00814604 0.00989881 0 0 0 -5.46043e-06 4.57624e-06 3.73609e-06 3.24007e-06 9.12699e-06 1.12356e-06 -0.00047187 -0.000969929 -0.000181844 0.004 799.549 -0.289328 
651 1 1 -0.0437987 0.0143398 0.00823566 0 0 0 -3.68486e-06 -2.84075e-07 -6.73683e-06 -1.07407e-07 3.43488e-07 -7.89117e-07 -0.000120617 0.000558269 -0.00030002 0.004 300.246 0.171987 
621 1 1 0.0437182 0.0147846 0.00900766 0 0 0 -2.83626e-06 2.19153e-06 1.70942e-06 4.15073e-07 3.84464e-06 -4.89196e-07 -0.000203724 0.000191826 -0.000496775 0.004 799.396 -0.353069 
726 1 1 -0.0257657 0.0199972 0.00692825 0 0 0 -4.70113e-06 1.28063e-06 -9.37484e-06 1.53866e-06 1.83036e-06 -1.27224e-06 -0.00111217 -0.00146309 -1.4988e-05 0.004 306.806 2.59659 
230 1 1 -0.00847468 0.024595 0.00973776 0 0 0 -7.56035e-06 7.04588e-06 -9.64949e-06 4.00944e-06 -5.20589e-06 1.92623e-06 -0.00186481 0.000188804 0.000661604 0.004 424.863 9.4149 
320 1 1 -0.00171268 0.020405 0.00979386 0 0 0 -6.95567e-06 9.79153e-06 -5.35814e-06 4.98429e-06 -7.42544e-07 1.29482e-06 -0.000652896 -0.000290529 9.8602e-05 0.004 506.338 6.7487 
7 1 1 0.0129211 0.0224303 0.00918519 0 0 0 -7.42513e-06 8.07003e-06 -6.75406e-08 1.20408e-06 6.3812e-06 7.07307e-07 -0.000166467 -0.000129061 0.000120829 0.004 725.64 -8.58921 
83 1 1 0.0214164 0.0239651 0.00888427 0 0 0 -6.11069e-06 7.18173e-06 6.85026e-07 2.31935e-06 9.13989e-06 1.2069e-06 -0.000683714 -0.000189843 -0.000409994 0.004 781.328 -4.8672 
747 1 1 -0.0337321 0.0313835 0.00974072 0 0 0 -5.00693e-06 1.52282e-06 -5.06569e-06 9.75979e-07 -1.21631e-06 -6.22656e-07 1.07164e-05 0.000453892 -8.86241e-05 0.004 303.027 1.42199 
51 1 1 -0.0226192 0.0329654 0.00703451 0 0 0 -6.11828e-06 7.35802e-07 -5.93521e-06 7.38244e-07 -1.09624e-06 -6.06742e-07 0.000282901 0.00061607 0.000135328 0.004 307.695 3.04106 
116 1 1 -0.00940736 0.0391203 0.00809817 0 0 0 -4.29274e-06 4.08933e-06 -6.3523e-06 1.77367e-06 -1.72261e-06 1.00426e-06 0.000511805 -0.000707824 -0.000537285 0.004 425.264 10.0508 
205 1 1 -0.000560473 -0.0460776 0.0110171 0 0 0 8.55287e-08 7.73325e-06 7.72827e-06 5.4511e-06 3.10541e-06 5.16665e-06 0.00139861 0.000760417 -0.000583516 0.004 520.327 9.51812 
836 1 1 0.00737984 -0.0454689 0.0106611 0 0 0 -1.56138e-06 7.92488e-06 1.0125e-05 2.461e-06 2.64656e-06 4.42407e-06 0.00086242 -0.00119544 -9.08133e-05 0.004 640.965 -7.09975 
486 1 1 -0.0156916 -0.0402432 0.0103351 0 0 0 2.23702e-07 5.57956e-06 5.09126e-06 4.20531e-06 1.93615e-06 5.09226e-06 0.000504026 -0.000855881 0.00138143 0.004 339.562 8.24465 
311 1 1 -0.00836813 -0.0439882 0.010679 0 0 0 -2.29692e-09 1.22207e-05 8.7128e-06 6.61934e-06 2.04817e-06 7.29617e-06 -0.00162312 -0.000134885 -0.000718865 0.004 375.564 12.4921 
447 1 1 0.0180551 -0.0423881 0.0118323 0 0 0 -2.90213e-06 6.01763e-06 1.07466e-05 2.41539e-06 -1.94116e-07 6.59446e-07 0.0014814 0.00107876 -0.000588326 0.004 744.884 -9.37043 
538 1 1 -0.0295743 -0.0353509 0.0149849 0 0 0 -1.40768e-06 2.27372e-06 1.41919e-06 3.40639e-07 -4.47698e-07 1.72677e-06 -0.00013151 -0.000230132 0.000351379 0.004 305.843 2.3039 
279 1 1 0.011155 -0.0385417 0.0114152 0 0 0 -4.23032e-06 1.40402e-05 2.31854e-05 6.53852e-06 3.27385e-06 8.65932e-06 -0.000398999 0.000608461 -5.65657e-05 0.004 692.061 -8.69389 
110 1 1 0.0250464 -0.0386627 0.0117241 0 0 0 -3.64869e-06 5.05175e-06 9.31983e-06 1.59513e-06 1.77392e-07 3.6984e-07 -0.000393457 0.000609046 -0.000194829 0.004 777.516 -6.13692 
188 1 1 -0.0179042 -0.0321007 0.0101563 0 0 0 -3.05095e-06 9.86911e-06 9.56906e-06 4.33499e-06 -4.39217e-06 6.32032e-06 -0.00101028 -0.000399256 0.000272041 0.004 335.686 7.34179 
810 1 1 -0.0102601 -0.034451 0.0102036 0 0 0 -2.76997e-06 1.33403e-05 1.58968e-05 7.56714e-06 -3.47479e-07 5.7632e-06 -0.000762699 -0.00123828 0.000897766 0.004 390.67 9.22675 
412 1 1 -0.00316749 -0.0328806 0.0133526 0 0 0 -5.74056e-06 2.23061e-05 3.0641e-05 1.1885e-05 2.64832e-06 8.63144e-06 -0.000215666 -0.000739833 0.000475218 0.004 477.947 5.58026 
545 1 1 0.0045205 -0.0343088 0.0121941 0 0 0 -5.98624e-06 1.837e-05 2.83143e-05 1.17166e-05 6.07845e-06 1.30815e-05 -0.000251614 -2.79927e-05 -8.62754e-05 0.004 614.61 -4.28662 